 Entering Gaussian System, Link 0=g09
 AtFile(1): pc-3.gbs
            -H     0
            S    5   1.00
                  0.774690D+03           0.131630D-02
                  0.116160D+03           0.102260D-01
                  0.264490D+02           0.536290D-01
                  0.750150D+01           0.222850D+00
                  0.245680D+01           0.753740D+00
            S    1   1.00
                  0.887740D+00           0.100000D+01
            S    1   1.00
                  0.340850D+00           0.100000D+01
            S    1   1.00
                  0.134770D+00           0.100000D+01
            S    1   1.00
                  0.522630D-01           0.100000D+01
            P    1   1.00
                  0.650000D+01           0.100000D+01
            P    1   1.00
                  0.155000D+01           0.100000D+01
            P    1   1.00
                  0.550000D+00           0.100000D+01
            P    1   1.00
                  0.200000D+00           0.100000D+01
            D    1   1.00
                  0.195000D+01           0.100000D+01
            D    1   1.00
                  0.650000D+00           0.100000D+01
            F    1   1.00
                  0.220000D+01           0.100000D+01
            ****
            -C     0
            S    9   1.00
                  0.871410D+05           0.281830D-04
                  0.130520D+05           0.218190D-03
                  0.297060D+04           0.115110D-02
                  0.841460D+03           0.478590D-02
                  0.274590D+03           0.171340D-01
                  0.992150D+02           0.511200D-01
                  0.386940D+02           0.128050D+00
                  0.159110D+02           0.227730D+00
                  0.676680D+01           0.247580D+00
            S    9   1.00
                  0.130520D+05           0.259300D-05
                  0.297060D+04          -0.309070D-05
                  0.841460D+03           0.122470D-03
                  0.274590D+03           0.254940D-03
                  0.992150D+02           0.512540D-02
                  0.386940D+02           0.219550D-01
                  0.159110D+02           0.141120D+00
                  0.676680D+01           0.413030D+00
                  0.289840D+01           0.827140D+00
            S    1   1.00
                  0.112460D+01           0.100000D+01
            S    1   1.00
                  0.514460D+00           0.100000D+01
            S    1   1.00
                  0.211760D+00           0.100000D+01
            S    1   1.00
                  0.850170D-01           0.100000D+01
            P    5   1.00
                  0.148240D+03           0.507560D-03
                  0.349120D+02           0.421260D-02
                  0.108940D+02           0.213350D-01
                  0.419340D+01           0.623290D-01
                  0.171340D+01           0.166420D+00
            P    1   1.00
                  0.735660D+00           0.100000D+01
            P    1   1.00
                  0.316370D+00           0.100000D+01
            P    1   1.00
                  0.132420D+00           0.100000D+01
            P    1   1.00
                  0.519010D-01           0.100000D+01
            D    1   1.00
                  0.520000D+01           0.100000D+01
            D    1   1.00
                  0.135000D+01           0.100000D+01
            D    1   1.00
                  0.520000D+00           0.100000D+01
            D    1   1.00
                  0.200000D+00           0.100000D+01
            F    1   1.00
                  0.150000D+01           0.100000D+01
            F    1   1.00
                  0.650000D+00           0.100000D+01
            G    1   1.00
                  0.140000D+01           0.100000D+01
            ****
            -N     0
            S    9   1.00
                  0.124550D+06           0.266720D-04
                  0.186560D+05           0.206840D-03
                  0.424510D+04           0.108930D-02
                  0.120210D+04           0.454630D-02
                  0.392140D+03           0.162370D-01
                  0.141580D+03           0.489570D-01
                  0.551360D+02           0.123170D+00
                  0.226430D+02           0.224250D+00
                  0.965660D+01           0.238760D+00
            S    8   1.00
                  0.186560D+05           0.140880D-05
                  0.120210D+04           0.814390D-04
                  0.392140D+03           0.324390D-03
                  0.141580D+03           0.436210D-02
                  0.551360D+02           0.228380D-01
                  0.226430D+02           0.134620D+00
                  0.965660D+01           0.425010D+00
                  0.416850D+01           0.825170D+00
            S    1   1.00
                  0.166780D+01           0.100000D+01
            S    1   1.00
                  0.745740D+00           0.100000D+01
            S    1   1.00
                  0.305160D+00           0.100000D+01
            S    1   1.00
                  0.120890D+00           0.100000D+01
            P    5   1.00
                  0.218290D+03           0.482810D-03
                  0.514880D+02           0.404200D-02
                  0.161300D+02           0.209460D-01
                  0.613070D+01           0.647570D-01
                  0.250520D+01           0.170420D+00
            P    1   1.00
                  0.107300D+01           0.100000D+01
            P    1   1.00
                  0.458380D+00           0.100000D+01
            P    1   1.00
                  0.189480D+00           0.100000D+01
            P    1   1.00
                  0.733590D-01           0.100000D+01
            D    1   1.00
                  0.600000D+01           0.100000D+01
            D    1   1.00
                  0.165000D+01           0.100000D+01
            D    1   1.00
                  0.650000D+00           0.100000D+01
            D    1   1.00
                  0.250000D+00           0.100000D+01
            F    1   1.00
                  0.180000D+01           0.100000D+01
            F    1   1.00
                  0.770000D+00           0.100000D+01
            G    1   1.00
                  0.150000D+01           0.100000D+01
            ****
            -O     0
            S    9   1.00
                  0.164030D+06           0.265210D-04
                  0.245670D+05           0.205710D-03
                  0.559100D+04           0.108270D-02
                  0.158360D+04           0.451900D-02
                  0.516670D+03           0.161350D-01
                  0.186560D+03           0.487160D-01
                  0.726960D+02           0.122680D+00
                  0.299920D+02           0.221890D+00
                  0.128990D+02           0.239040D+00
            S    8   1.00
                  0.245670D+05           0.133220D-05
                  0.158360D+04           0.802520D-04
                  0.516670D+03           0.345120D-03
                  0.186560D+03           0.444840D-02
                  0.726960D+02           0.236010D-01
                  0.299920D+02           0.138610D+00
                  0.128990D+02           0.428720D+00
                  0.561350D+01           0.848730D+00
            S    1   1.00
                  0.229860D+01           0.100000D+01
            S    1   1.00
                  0.999800D+00           0.100000D+01
            S    1   1.00
                  0.407460D+00           0.100000D+01
            S    1   1.00
                  0.159220D+00           0.100000D+01
            P    5   1.00
                  0.272020D+03           0.549410D-03
                  0.642430D+02           0.458340D-02
                  0.202490D+02           0.235730D-01
                  0.764380D+01           0.743380D-01
                  0.312320D+01           0.187550D+00
            P    1   1.00
                  0.132510D+01           0.100000D+01
            P    1   1.00
                  0.555510D+00           0.100000D+01
            P    1   1.00
                  0.222290D+00           0.100000D+01
            P    1   1.00
                  0.840100D-01           0.100000D+01
            D    1   1.00
                  0.700000D+01           0.100000D+01
            D    1   1.00
                  0.200000D+01           0.100000D+01
            D    1   1.00
                  0.800000D+00           0.100000D+01
            D    1   1.00
                  0.300000D+00           0.100000D+01
            F    1   1.00
                  0.210000D+01           0.100000D+01
            F    1   1.00
                  0.900000D+00           0.100000D+01
            G    1   1.00
                  0.160000D+01           0.100000D+01
            ****
 Initial command:
 /public3/home/sc51754/softwares/g09e01/l1.exe "./Gau-50838.inp" -scrdir="./"
 Entering Link 1 = /public3/home/sc51754/softwares/g09e01/l1.exe PID=     50839.
  
 Copyright (c) 1988,1990,1992,1993,1995,1998,2003,2009,2015,
            Gaussian, Inc.  All Rights Reserved.
  
 This is part of the Gaussian(R) 09 program.  It is based on
 the Gaussian(R) 03 system (copyright 2003, Gaussian, Inc.),
 the Gaussian(R) 98 system (copyright 1998, Gaussian, Inc.),
 the Gaussian(R) 94 system (copyright 1995, Gaussian, Inc.),
 the Gaussian 92(TM) system (copyright 1992, Gaussian, Inc.),
 the Gaussian 90(TM) system (copyright 1990, Gaussian, Inc.),
 the Gaussian 88(TM) system (copyright 1988, Gaussian, Inc.),
 the Gaussian 86(TM) system (copyright 1986, Carnegie Mellon
 University), and the Gaussian 82(TM) system (copyright 1983,
 Carnegie Mellon University). Gaussian is a federally registered
 trademark of Gaussian, Inc.
  
 This software contains proprietary and confidential information,
 including trade secrets, belonging to Gaussian, Inc.
  
 This software is provided under written license and may be
 used, copied, transmitted, or stored only in accord with that
 written license.
  
 The following legend is applicable only to US Government
 contracts under FAR:
  
                    RESTRICTED RIGHTS LEGEND
  
 Use, reproduction and disclosure by the US Government is
 subject to restrictions as set forth in subparagraphs (a)
 and (c) of the Commercial Computer Software - Restricted
 Rights clause in FAR 52.227-19.
  
 Gaussian, Inc.
 340 Quinnipiac St., Bldg. 40, Wallingford CT 06492
  
  
 ---------------------------------------------------------------
 Warning -- This program may not be used in any manner that
 competes with the business of Gaussian, Inc. or will provide
 assistance to any competitor of Gaussian, Inc.  The licensee
 of this program is prohibited from giving any competitor of
 Gaussian, Inc. access to this program.  By using this program,
 the user acknowledges that Gaussian, Inc. is engaged in the
 business of creating and licensing software in the field of
 computational chemistry and represents and warrants to the
 licensee that it is not a competitor of Gaussian, Inc. and that
 it will not use this program in any manner prohibited above.
 ---------------------------------------------------------------
  

 Cite this work as:
 Gaussian 09, Revision E.01,
 M. J. Frisch, G. W. Trucks, H. B. Schlegel, G. E. Scuseria, 
 M. A. Robb, J. R. Cheeseman, G. Scalmani, V. Barone, B. Mennucci, 
 G. A. Petersson, H. Nakatsuji, M. Caricato, X. Li, H. P. Hratchian, 
 A. F. Izmaylov, J. Bloino, G. Zheng, J. L. Sonnenberg, M. Hada, 
 M. Ehara, K. Toyota, R. Fukuda, J. Hasegawa, M. Ishida, T. Nakajima, 
 Y. Honda, O. Kitao, H. Nakai, T. Vreven, J. A. Montgomery, Jr., 
 J. E. Peralta, F. Ogliaro, M. Bearpark, J. J. Heyd, E. Brothers, 
 K. N. Kudin, V. N. Staroverov, T. Keith, R. Kobayashi, J. Normand, 
 K. Raghavachari, A. Rendell, J. C. Burant, S. S. Iyengar, J. Tomasi, 
 M. Cossi, N. Rega, J. M. Millam, M. Klene, J. E. Knox, J. B. Cross, 
 V. Bakken, C. Adamo, J. Jaramillo, R. Gomperts, R. E. Stratmann, 
 O. Yazyev, A. J. Austin, R. Cammi, C. Pomelli, J. W. Ochterski, 
 R. L. Martin, K. Morokuma, V. G. Zakrzewski, G. A. Voth, 
 P. Salvador, J. J. Dannenberg, S. Dapprich, A. D. Daniels, 
 O. Farkas, J. B. Foresman, J. V. Ortiz, J. Cioslowski, 
 and D. J. Fox, Gaussian, Inc., Wallingford CT, 2013.
 
 ******************************************
 Gaussian 09:  EM64L-G09RevE.01 30-Nov-2015
                26-Aug-2021 
 ******************************************
 %nprocshared=64
 Will use up to   64 processors via shared memory.
 %mem=128GB
 %chk=PY_pc-3_B3LYP_OPT_FREQ.chk
 --------------------
 # opt freq b3lyp/gen
 --------------------
 1/14=-1,18=20,19=15,26=3,38=1/1,3;
 2/9=110,12=2,17=6,18=5,40=1/2;
 3/5=7,11=2,16=1,25=1,30=1,71=1,74=-5/1,2,3;
 4//1;
 5/5=2,38=5/2;
 6/7=2,8=2,9=2,10=2,28=1/1;
 7//1,2,3,16;
 1/14=-1,18=20,19=15,26=3/3(2);
 2/9=110/2;
 99//99;
 2/9=110/2;
 3/5=7,6=1,11=2,16=1,25=1,30=1,71=1,74=-5,82=7/1,2,3;
 4/5=5,16=3,69=1/1;
 5/5=2,38=5/2;
 7//1,2,3,16;
 1/14=-1,18=20,19=15,26=3/3(-5);
 2/9=110/2;
 6/7=2,8=2,9=2,10=2,19=2,28=1/1;
 99/9=1/99;
 ----------------------
 PY_pc-3_B3LYP_OPT_FREQ
 ----------------------
 Symbolic Z-matrix:
 Charge =  0 Multiplicity = 1
 O                     2.282    -0.023     0. 
 N                     0.285    -1.189     0. 
 C                     1.054    -0.034     0. 
 C                     0.288     1.248     0. 
 C                    -1.088    -1.185     0. 
 C                    -1.052     1.217     0. 
 C                    -1.77     -0.034     0. 
 H                     0.753    -2.09      0. 
 H                     0.841     2.179     0. 
 H                    -1.569    -2.154     0. 
 H                    -1.628     2.135     0. 
 H                    -2.853    -0.016     0. 
 

 GradGradGradGradGradGradGradGradGradGradGradGradGradGradGradGradGradGrad
 Berny optimization.
 Initialization pass.
                           ----------------------------
                           !    Initial Parameters    !
                           ! (Angstroms and Degrees)  !
 --------------------------                            --------------------------
 ! Name  Definition              Value          Derivative Info.                !
 --------------------------------------------------------------------------------
 ! R1    R(1,3)                  1.228          estimate D2E/DX2                !
 ! R2    R(2,3)                  1.3876         estimate D2E/DX2                !
 ! R3    R(2,5)                  1.373          estimate D2E/DX2                !
 ! R4    R(2,8)                  1.0153         estimate D2E/DX2                !
 ! R5    R(3,4)                  1.4934         estimate D2E/DX2                !
 ! R6    R(4,6)                  1.3404         estimate D2E/DX2                !
 ! R7    R(4,9)                  1.0829         estimate D2E/DX2                !
 ! R8    R(5,7)                  1.3379         estimate D2E/DX2                !
 ! R9    R(5,10)                 1.0818         estimate D2E/DX2                !
 ! R10   R(6,7)                  1.4424         estimate D2E/DX2                !
 ! R11   R(6,11)                 1.0837         estimate D2E/DX2                !
 ! R12   R(7,12)                 1.0831         estimate D2E/DX2                !
 ! A1    A(3,2,5)              123.4888         estimate D2E/DX2                !
 ! A2    A(3,2,8)              118.8959         estimate D2E/DX2                !
 ! A3    A(5,2,8)              117.6153         estimate D2E/DX2                !
 ! A4    A(1,3,2)              124.1689         estimate D2E/DX2                !
 ! A5    A(1,3,4)              120.3453         estimate D2E/DX2                !
 ! A6    A(2,3,4)              115.4858         estimate D2E/DX2                !
 ! A7    A(3,4,6)              119.5332         estimate D2E/DX2                !
 ! A8    A(3,4,9)              118.4318         estimate D2E/DX2                !
 ! A9    A(6,4,9)              122.0349         estimate D2E/DX2                !
 ! A10   A(2,5,7)              120.8149         estimate D2E/DX2                !
 ! A11   A(2,5,10)             116.2323         estimate D2E/DX2                !
 ! A12   A(7,5,10)             122.9528         estimate D2E/DX2                !
 ! A13   A(4,6,7)              121.1785         estimate D2E/DX2                !
 ! A14   A(4,6,11)             120.781          estimate D2E/DX2                !
 ! A15   A(7,6,11)             118.0405         estimate D2E/DX2                !
 ! A16   A(5,7,6)              119.4988         estimate D2E/DX2                !
 ! A17   A(5,7,12)             121.6001         estimate D2E/DX2                !
 ! A18   A(6,7,12)             118.9011         estimate D2E/DX2                !
 ! D1    D(5,2,3,1)            180.0            estimate D2E/DX2                !
 ! D2    D(5,2,3,4)              0.0            estimate D2E/DX2                !
 ! D3    D(8,2,3,1)              0.0            estimate D2E/DX2                !
 ! D4    D(8,2,3,4)            180.0            estimate D2E/DX2                !
 ! D5    D(3,2,5,7)              0.0            estimate D2E/DX2                !
 ! D6    D(3,2,5,10)           180.0            estimate D2E/DX2                !
 ! D7    D(8,2,5,7)            180.0            estimate D2E/DX2                !
 ! D8    D(8,2,5,10)             0.0            estimate D2E/DX2                !
 ! D9    D(1,3,4,6)            180.0            estimate D2E/DX2                !
 ! D10   D(1,3,4,9)              0.0            estimate D2E/DX2                !
 ! D11   D(2,3,4,6)              0.0            estimate D2E/DX2                !
 ! D12   D(2,3,4,9)            180.0            estimate D2E/DX2                !
 ! D13   D(3,4,6,7)              0.0            estimate D2E/DX2                !
 ! D14   D(3,4,6,11)           180.0            estimate D2E/DX2                !
 ! D15   D(9,4,6,7)            180.0            estimate D2E/DX2                !
 ! D16   D(9,4,6,11)             0.0            estimate D2E/DX2                !
 ! D17   D(2,5,7,6)              0.0            estimate D2E/DX2                !
 ! D18   D(2,5,7,12)           180.0            estimate D2E/DX2                !
 ! D19   D(10,5,7,6)           180.0            estimate D2E/DX2                !
 ! D20   D(10,5,7,12)            0.0            estimate D2E/DX2                !
 ! D21   D(4,6,7,5)              0.0            estimate D2E/DX2                !
 ! D22   D(4,6,7,12)           180.0            estimate D2E/DX2                !
 ! D23   D(11,6,7,5)           180.0            estimate D2E/DX2                !
 ! D24   D(11,6,7,12)            0.0            estimate D2E/DX2                !
 --------------------------------------------------------------------------------
 Trust Radius=3.00D-01 FncErr=1.00D-07 GrdErr=1.00D-06
 Number of steps in this run=     64 maximum allowed number of steps=    100.
 GradGradGradGradGradGradGradGradGradGradGradGradGradGradGradGradGradGrad

                          Input orientation:                          
 ---------------------------------------------------------------------
 Center     Atomic      Atomic             Coordinates (Angstroms)
 Number     Number       Type             X           Y           Z
 ---------------------------------------------------------------------
      1          8           0        2.282000   -0.023000    0.000000
      2          7           0        0.285000   -1.189000    0.000000
      3          6           0        1.054000   -0.034000    0.000000
      4          6           0        0.288000    1.248000    0.000000
      5          6           0       -1.088000   -1.185000    0.000000
      6          6           0       -1.052000    1.217000    0.000000
      7          6           0       -1.770000   -0.034000    0.000000
      8          1           0        0.753000   -2.090000    0.000000
      9          1           0        0.841000    2.179000    0.000000
     10          1           0       -1.569000   -2.154000    0.000000
     11          1           0       -1.628000    2.135000    0.000000
     12          1           0       -2.853000   -0.016000    0.000000
 ---------------------------------------------------------------------
                    Distance matrix (angstroms):
                    1          2          3          4          5
     1  O    0.000000
     2  N    2.312480   0.000000
     3  C    1.228049   1.387583   0.000000
     4  C    2.364630   2.437002   1.493412   0.000000
     5  C    3.564708   1.373006   2.431659   2.795150   0.000000
     6  C    3.557127   2.752527   2.449538   1.340359   2.402270
     7  C    4.052015   2.357340   2.824000   2.424642   1.337881
     8  H    2.571056   1.015296   2.077917   3.370233   2.051416
     9  H    2.631594   3.413585   2.223227   1.082853   3.877826
    10  H    4.401291   2.090105   3.372615   3.875829   1.081814
    11  H    4.465990   3.835172   3.449302   2.111356   3.363629
    12  H    5.135005   3.350071   3.907041   3.385790   2.117023
                    6          7          8          9         10
     6  C    0.000000
     7  C    1.442403   0.000000
     8  H    3.767529   3.254637   0.000000
     9  H    2.123415   3.422673   4.269907   0.000000
    10  H    3.410415   2.129507   2.322882   4.958124   0.000000
    11  H    1.083744   2.173643   4.849720   2.469392   4.289406
    12  H    2.182634   1.083150   4.159893   4.296936   2.493933
                   11         12
    11  H    0.000000
    12  H    2.475364   0.000000
 Stoichiometry    C5H5NO
 Framework group  CS[SG(C5H5NO)]
 Deg. of freedom    21
 Full point group                 CS      NOp   2
 Largest Abelian subgroup         CS      NOp   2
 Largest concise Abelian subgroup C1      NOp   1
                         Standard orientation:                         
 ---------------------------------------------------------------------
 Center     Atomic      Atomic             Coordinates (Angstroms)
 Number     Number       Type             X           Y           Z
 ---------------------------------------------------------------------
      1          8           0        0.023182    2.274142    0.000000
      2          7           0       -1.162572    0.288808    0.000000
      3          6           0        0.000000    1.046311    0.000000
      4          6           0        1.274338    0.267631    0.000000
      5          6           0       -1.172193   -1.084165    0.000000
      6          6           0        1.230046   -1.071996    0.000000
      7          6           0       -0.028016   -1.777550    0.000000
      8          1           0       -2.058885    0.765723    0.000000
      9          1           0        2.210778    0.811368    0.000000
     10          1           0       -2.145917   -1.555528    0.000000
     11          1           0        2.142286   -1.657074    0.000000
     12          1           0       -0.020761   -2.860675    0.000000
 ---------------------------------------------------------------------
 Rotational constants (GHZ):      5.5208968      2.8360543      1.8735976
 General basis read from cards:  (5D, 7F)
 There are   506 symmetry adapted cartesian basis functions of A'  symmetry.
 There are   249 symmetry adapted cartesian basis functions of A"  symmetry.
 There are   402 symmetry adapted basis functions of A'  symmetry.
 There are   216 symmetry adapted basis functions of A"  symmetry.
   618 basis functions,   964 primitive gaussians,   755 cartesian basis functions
    25 alpha electrons       25 beta electrons
       nuclear repulsion energy       275.0774566563 Hartrees.
 NAtoms=   12 NActive=   12 NUniq=   12 SFac= 1.00D+00 NAtFMM=   60 NAOKFM=F Big=F
 Integral buffers will be    131072 words long.
 Raffenetti 2 integral format.
 Two-electron integral symmetry is turned on.
 One-electron integrals computed using PRISM.
 NBasis=   618 RedAO= T EigKep=  1.23D-05  NBF=   402   216
 NBsUse=   618 1.00D-06 EigRej= -1.00D+00 NBFU=   402   216
 ExpMin= 5.19D-02 ExpMax= 1.64D+05 ExpMxC= 5.17D+02 IAcc=2 IRadAn=         4 AccDes= 0.00D+00
 Harris functional with IExCor=  402 and IRadAn=       4 diagonalized for initial guess.
 HarFok:  IExCor=  402 AccDes= 0.00D+00 IRadAn=         4 IDoV= 1 UseB2=F ITyADJ=14
 ICtDFT=  3500011 ScaDFX=  1.000000  1.000000  1.000000  1.000000
 FoFCou: FMM=F IPFlag=           0 FMFlag=      100000 FMFlg1=           0
         NFxFlg=           0 DoJE=T BraDBF=F KetDBF=T FulRan=T
         wScrn=  0.000000 ICntrl=     500 IOpCl=  0 I1Cent=   200000004 NGrid=           0
         NMat0=    1 NMatS0=      1 NMatT0=    0 NMatD0=    1 NMtDS0=    0 NMtDT0=    0
 Petite list used in FoFCou.
 Initial guess orbital symmetries:
       Occupied  (A') (A') (A') (A') (A') (A') (A') (A') (A') (A')
                 (A') (A') (A') (A') (A') (A') (A') (A') (A") (A')
                 (A') (A") (A") (A') (A")
       Virtual   (A") (A") (A') (A') (A") (A') (A') (A') (A') (A")
                 (A') (A') (A") (A') (A") (A') (A') (A') (A") (A')
                 (A') (A') (A") (A') (A') (A') (A') (A') (A") (A')
                 (A') (A") (A') (A') (A') (A') (A') (A') (A") (A')
                 (A') (A') (A') (A') (A') (A") (A") (A') (A") (A')
                 (A') (A") (A') (A') (A") (A") (A") (A') (A') (A")
                 (A') (A') (A") (A') (A') (A") (A') (A') (A') (A')
                 (A") (A') (A') (A') (A") (A') (A') (A") (A') (A')
                 (A") (A') (A") (A') (A') (A') (A") (A") (A') (A")
                 (A') (A') (A') (A') (A') (A") (A') (A") (A") (A')
                 (A') (A') (A') (A") (A') (A') (A') (A") (A') (A')
                 (A') (A') (A') (A") (A') (A") (A') (A') (A") (A')
                 (A') (A") (A') (A") (A') (A') (A") (A") (A') (A')
                 (A") (A") (A') (A') (A') (A") (A') (A') (A') (A')
                 (A") (A') (A") (A") (A') (A") (A") (A') (A') (A")
                 (A') (A") (A') (A') (A') (A") (A') (A') (A") (A')
                 (A') (A") (A') (A') (A") (A') (A') (A') (A") (A')
                 (A') (A') (A") (A') (A") (A') (A') (A') (A") (A")
                 (A") (A') (A") (A') (A") (A') (A') (A") (A') (A')
                 (A") (A") (A') (A") (A') (A') (A') (A") (A') (A')
                 (A") (A') (A") (A") (A') (A') (A') (A") (A') (A")
                 (A') (A') (A') (A') (A') (A') (A') (A') (A") (A')
                 (A") (A') (A") (A') (A') (A") (A") (A') (A') (A')
                 (A") (A") (A') (A') (A') (A') (A') (A") (A') (A")
                 (A') (A') (A') (A') (A') (A') (A') (A') (A') (A")
                 (A") (A') (A') (A') (A") (A") (A') (A") (A') (A')
                 (A") (A') (A") (A') (A') (A") (A') (A") (A') (A')
                 (A') (A') (A') (A") (A") (A') (A') (A") (A") (A')
                 (A") (A") (A') (A") (A") (A') (A") (A') (A") (A')
                 (A") (A') (A") (A") (A') (A') (A") (A') (A") (A")
                 (A') (A") (A') (A') (A') (A') (A") (A") (A") (A')
                 (A') (A") (A') (A') (A') (A") (A') (A') (A') (A')
                 (A') (A') (A') (A') (A') (A') (A') (A") (A') (A")
                 (A') (A") (A') (A") (A') (A') (A") (A') (A') (A')
                 (A") (A') (A") (A') (A') (A") (A") (A') (A') (A")
                 (A") (A") (A') (A') (A") (A') (A') (A") (A') (A")
                 (A') (A') (A') (A') (A") (A') (A') (A") (A') (A')
                 (A") (A') (A") (A') (A") (A') (A") (A") (A') (A')
                 (A") (A') (A") (A") (A') (A') (A") (A') (A") (A')
                 (A") (A") (A") (A") (A') (A') (A") (A") (A') (A')
                 (A") (A') (A") (A') (A") (A') (A') (A") (A') (A")
                 (A') (A') (A") (A') (A") (A') (A') (A') (A') (A')
                 (A") (A") (A') (A") (A') (A') (A') (A') (A') (A')
                 (A") (A') (A') (A') (A') (A') (A") (A') (A') (A')
                 (A") (A") (A') (A') (A") (A') (A") (A") (A') (A")
                 (A') (A") (A') (A") (A') (A") (A') (A') (A') (A')
                 (A') (A") (A') (A") (A") (A') (A') (A") (A") (A')
                 (A') (A") (A") (A") (A') (A') (A") (A') (A") (A')
                 (A') (A") (A") (A') (A') (A') (A') (A") (A') (A")
                 (A') (A') (A') (A') (A") (A") (A') (A') (A") (A')
                 (A') (A") (A') (A') (A') (A") (A') (A") (A') (A')
                 (A") (A') (A') (A') (A') (A') (A') (A') (A') (A")
                 (A") (A') (A") (A') (A") (A') (A') (A') (A") (A')
                 (A') (A') (A') (A') (A') (A') (A") (A") (A") (A")
                 (A") (A") (A") (A") (A") (A') (A") (A') (A') (A')
                 (A') (A') (A') (A') (A') (A') (A') (A') (A') (A')
                 (A') (A") (A") (A") (A") (A") (A') (A") (A') (A")
                 (A') (A') (A') (A') (A') (A') (A') (A') (A') (A')
                 (A") (A') (A") (A') (A') (A') (A') (A') (A') (A')
                 (A') (A') (A')
 The electronic state of the initial guess is 1-A'.
 Requested convergence on RMS density matrix=1.00D-08 within 128 cycles.
 Requested convergence on MAX density matrix=1.00D-06.
 Requested convergence on             energy=1.00D-06.
 No special actions if energy rises.
 Integral accuracy reduced to 1.0D-05 until final iterations.
 Initial convergence to 1.0D-05 achieved.  Increase integral accuracy.
 SCF Done:  E(RB3LYP) =  -323.671614816     A.U. after   14 cycles
            NFock= 14  Conv=0.57D-08     -V/T= 2.0047

 **********************************************************************

            Population analysis using the SCF density.

 **********************************************************************

 Orbital symmetries:
       Occupied  (A') (A') (A') (A') (A') (A') (A') (A') (A') (A')
                 (A') (A') (A') (A') (A') (A') (A') (A") (A') (A')
                 (A') (A") (A") (A') (A")
       Virtual   (A") (A') (A") (A') (A') (A') (A') (A") (A') (A")
                 (A') (A") (A') (A") (A') (A') (A') (A") (A') (A')
                 (A") (A') (A') (A') (A') (A') (A') (A") (A") (A')
                 (A') (A') (A') (A') (A') (A') (A') (A') (A") (A')
                 (A') (A') (A') (A') (A") (A") (A') (A') (A") (A')
                 (A") (A') (A') (A") (A") (A") (A') (A') (A") (A')
                 (A") (A') (A') (A') (A") (A') (A') (A') (A') (A")
                 (A') (A') (A') (A') (A") (A') (A') (A") (A') (A')
                 (A') (A") (A") (A') (A') (A') (A") (A') (A") (A')
                 (A') (A") (A') (A') (A') (A") (A') (A') (A") (A")
                 (A') (A') (A') (A') (A") (A') (A') (A") (A') (A')
                 (A') (A') (A') (A") (A') (A") (A') (A') (A") (A')
                 (A') (A") (A') (A") (A') (A') (A") (A') (A") (A')
                 (A') (A") (A") (A') (A') (A") (A') (A') (A") (A')
                 (A') (A") (A') (A') (A") (A") (A") (A') (A') (A")
                 (A') (A") (A') (A') (A') (A") (A') (A') (A") (A')
                 (A') (A") (A') (A') (A") (A') (A') (A") (A') (A')
                 (A') (A') (A") (A') (A") (A') (A') (A") (A') (A")
                 (A') (A") (A") (A') (A") (A') (A') (A") (A') (A')
                 (A") (A') (A") (A") (A') (A') (A') (A") (A') (A')
                 (A") (A') (A") (A') (A') (A") (A") (A') (A') (A')
                 (A") (A') (A') (A') (A') (A') (A') (A') (A') (A")
                 (A") (A") (A') (A') (A") (A') (A") (A') (A') (A')
                 (A") (A') (A') (A") (A') (A') (A") (A') (A") (A')
                 (A') (A') (A') (A') (A') (A') (A') (A') (A') (A")
                 (A") (A') (A') (A') (A") (A") (A') (A") (A') (A')
                 (A") (A") (A') (A') (A') (A") (A') (A") (A') (A')
                 (A') (A') (A') (A") (A") (A') (A') (A") (A") (A')
                 (A") (A') (A") (A") (A") (A') (A') (A") (A") (A")
                 (A') (A') (A") (A") (A') (A") (A") (A') (A') (A")
                 (A') (A') (A") (A') (A') (A') (A") (A") (A') (A")
                 (A") (A') (A') (A') (A') (A') (A") (A') (A') (A')
                 (A') (A') (A') (A') (A') (A') (A') (A") (A') (A')
                 (A") (A") (A') (A") (A') (A') (A") (A') (A') (A')
                 (A") (A') (A") (A') (A') (A") (A") (A') (A') (A")
                 (A") (A") (A') (A') (A") (A') (A") (A') (A') (A')
                 (A") (A') (A') (A') (A") (A') (A') (A") (A') (A')
                 (A') (A") (A') (A") (A") (A') (A") (A") (A') (A')
                 (A") (A') (A") (A") (A') (A') (A") (A') (A") (A")
                 (A") (A') (A") (A") (A') (A") (A') (A") (A') (A')
                 (A") (A") (A') (A') (A") (A') (A') (A") (A') (A')
                 (A") (A') (A') (A") (A") (A') (A') (A') (A') (A")
                 (A') (A") (A") (A') (A') (A') (A') (A') (A') (A")
                 (A') (A') (A') (A') (A') (A") (A') (A') (A') (A")
                 (A') (A") (A') (A') (A") (A') (A") (A") (A') (A")
                 (A') (A") (A') (A") (A") (A') (A') (A') (A') (A')
                 (A') (A") (A") (A") (A') (A") (A') (A") (A') (A')
                 (A') (A") (A") (A") (A') (A') (A") (A") (A') (A')
                 (A") (A') (A") (A') (A') (A') (A') (A") (A") (A')
                 (A') (A') (A") (A') (A') (A") (A') (A') (A') (A")
                 (A') (A") (A') (A') (A") (A') (A') (A") (A') (A')
                 (A") (A') (A') (A') (A') (A') (A') (A') (A') (A")
                 (A") (A') (A") (A') (A") (A') (A') (A") (A') (A')
                 (A') (A') (A') (A') (A') (A') (A") (A") (A") (A")
                 (A") (A") (A") (A") (A") (A') (A") (A') (A') (A')
                 (A') (A') (A') (A') (A') (A') (A') (A') (A') (A')
                 (A') (A") (A") (A") (A") (A") (A') (A") (A') (A")
                 (A') (A') (A') (A') (A') (A') (A') (A') (A') (A')
                 (A") (A') (A") (A') (A') (A') (A') (A') (A') (A')
                 (A') (A') (A')
 The electronic state is 1-A'.
 Alpha  occ. eigenvalues --  -19.08653 -14.38508 -10.28325 -10.24166 -10.20330
 Alpha  occ. eigenvalues --  -10.19081 -10.19044  -1.03857  -0.96704  -0.82922
 Alpha  occ. eigenvalues --   -0.76652  -0.65619  -0.65173  -0.56818  -0.51634
 Alpha  occ. eigenvalues --   -0.49779  -0.47348  -0.44975  -0.43408  -0.39755
 Alpha  occ. eigenvalues --   -0.38477  -0.35334  -0.32065  -0.26047  -0.23432
 Alpha virt. eigenvalues --   -0.05283  -0.01425  -0.00635   0.00913   0.02178
 Alpha virt. eigenvalues --    0.04438   0.04844   0.05543   0.06589   0.08520
 Alpha virt. eigenvalues --    0.09197   0.09855   0.09951   0.11011   0.12137
 Alpha virt. eigenvalues --    0.12659   0.14355   0.14801   0.15016   0.15710
 Alpha virt. eigenvalues --    0.16545   0.17667   0.18849   0.19260   0.20841
 Alpha virt. eigenvalues --    0.21264   0.22891   0.23221   0.24169   0.24723
 Alpha virt. eigenvalues --    0.25308   0.25887   0.26364   0.28767   0.28969
 Alpha virt. eigenvalues --    0.30101   0.30676   0.32695   0.32783   0.33476
 Alpha virt. eigenvalues --    0.34291   0.35358   0.37606   0.39432   0.39725
 Alpha virt. eigenvalues --    0.41168   0.42651   0.44858   0.45289   0.45487
 Alpha virt. eigenvalues --    0.46028   0.46495   0.46820   0.47321   0.47651
 Alpha virt. eigenvalues --    0.48638   0.49003   0.51034   0.53011   0.53804
 Alpha virt. eigenvalues --    0.55657   0.55871   0.56223   0.57007   0.57297
 Alpha virt. eigenvalues --    0.59496   0.60098   0.61808   0.62452   0.63933
 Alpha virt. eigenvalues --    0.64725   0.66226   0.67785   0.69691   0.70980
 Alpha virt. eigenvalues --    0.71153   0.72577   0.72938   0.74967   0.76734
 Alpha virt. eigenvalues --    0.77484   0.77551   0.79103   0.79648   0.79980
 Alpha virt. eigenvalues --    0.81711   0.83941   0.87319   0.88060   0.88189
 Alpha virt. eigenvalues --    0.90456   0.91717   0.92757   0.93900   0.95162
 Alpha virt. eigenvalues --    0.95381   0.97124   0.97649   0.97813   0.98319
 Alpha virt. eigenvalues --    0.98933   1.01970   1.03295   1.03610   1.04219
 Alpha virt. eigenvalues --    1.05821   1.09032   1.09346   1.10360   1.14062
 Alpha virt. eigenvalues --    1.14448   1.17957   1.22569   1.24395   1.25521
 Alpha virt. eigenvalues --    1.27983   1.28532   1.30287   1.33155   1.36428
 Alpha virt. eigenvalues --    1.38395   1.38743   1.40077   1.43781   1.45107
 Alpha virt. eigenvalues --    1.46839   1.50062   1.51473   1.53119   1.56015
 Alpha virt. eigenvalues --    1.58008   1.58049   1.59982   1.60905   1.62308
 Alpha virt. eigenvalues --    1.62395   1.62759   1.65913   1.66087   1.66521
 Alpha virt. eigenvalues --    1.67382   1.70266   1.70417   1.70570   1.71644
 Alpha virt. eigenvalues --    1.71829   1.75983   1.78110   1.79774   1.79952
 Alpha virt. eigenvalues --    1.83080   1.83827   1.84899   1.85696   1.87469
 Alpha virt. eigenvalues --    1.90026   1.90320   1.91392   1.92996   1.93444
 Alpha virt. eigenvalues --    1.98027   1.98301   1.98932   2.00718   2.01476
 Alpha virt. eigenvalues --    2.02813   2.03994   2.07369   2.08287   2.09529
 Alpha virt. eigenvalues --    2.11336   2.12351   2.12791   2.15644   2.16173
 Alpha virt. eigenvalues --    2.17758   2.18993   2.21541   2.22624   2.23325
 Alpha virt. eigenvalues --    2.24797   2.24826   2.26203   2.27913   2.29560
 Alpha virt. eigenvalues --    2.31317   2.32570   2.36136   2.36311   2.41305
 Alpha virt. eigenvalues --    2.43086   2.44394   2.44633   2.46341   2.49429
 Alpha virt. eigenvalues --    2.53769   2.55278   2.58208   2.58304   2.58780
 Alpha virt. eigenvalues --    2.60203   2.61261   2.62517   2.64885   2.66683
 Alpha virt. eigenvalues --    2.66842   2.69340   2.70596   2.72774   2.74517
 Alpha virt. eigenvalues --    2.78424   2.79718   2.81721   2.85616   2.89085
 Alpha virt. eigenvalues --    2.89721   2.91432   2.95223   2.97367   2.98029
 Alpha virt. eigenvalues --    3.00769   3.03385   3.03412   3.08330   3.09639
 Alpha virt. eigenvalues --    3.10959   3.14834   3.15064   3.17925   3.19135
 Alpha virt. eigenvalues --    3.19804   3.23072   3.24956   3.25506   3.26787
 Alpha virt. eigenvalues --    3.28793   3.30444   3.32311   3.32655   3.33925
 Alpha virt. eigenvalues --    3.35043   3.40366   3.40955   3.43833   3.44698
 Alpha virt. eigenvalues --    3.46869   3.49706   3.50697   3.55893   3.56397
 Alpha virt. eigenvalues --    3.60519   3.61421   3.66080   3.69380   3.71112
 Alpha virt. eigenvalues --    3.74963   3.76362   3.82155   3.84002   3.85443
 Alpha virt. eigenvalues --    3.85994   3.97576   3.98894   3.99680   4.13307
 Alpha virt. eigenvalues --    4.14063   4.18054   4.20660   4.23853   4.29423
 Alpha virt. eigenvalues --    4.34527   4.36709   4.40713   4.41982   4.43065
 Alpha virt. eigenvalues --    4.47946   4.50442   4.54109   4.58912   4.63511
 Alpha virt. eigenvalues --    4.67110   4.73072   4.74115   4.76751   4.80170
 Alpha virt. eigenvalues --    4.80760   4.83153   4.84629   4.88392   4.91813
 Alpha virt. eigenvalues --    4.92629   4.95960   4.96166   4.97112   4.99202
 Alpha virt. eigenvalues --    4.99255   5.02400   5.02955   5.03738   5.07424
 Alpha virt. eigenvalues --    5.07755   5.10959   5.11456   5.16346   5.17586
 Alpha virt. eigenvalues --    5.19453   5.22426   5.27260   5.28847   5.30878
 Alpha virt. eigenvalues --    5.34919   5.35648   5.36634   5.41587   5.43950
 Alpha virt. eigenvalues --    5.47548   5.48908   5.52426   5.55585   5.61150
 Alpha virt. eigenvalues --    5.62923   5.67208   5.70946   5.75153   5.81943
 Alpha virt. eigenvalues --    5.87086   5.89961   5.91018   5.92110   5.99196
 Alpha virt. eigenvalues --    5.99321   6.01764   6.06303   6.07901   6.12886
 Alpha virt. eigenvalues --    6.16385   6.19727   6.28382   6.31161   6.34196
 Alpha virt. eigenvalues --    6.35798   6.37846   6.40510   6.44333   6.47900
 Alpha virt. eigenvalues --    6.48321   6.49374   6.53764   6.57911   6.58218
 Alpha virt. eigenvalues --    6.61488   6.62169   6.64824   6.65751   6.66970
 Alpha virt. eigenvalues --    6.77314   6.83140   6.83973   6.85053   6.87521
 Alpha virt. eigenvalues --    6.87859   6.90616   6.96188   6.99196   6.99375
 Alpha virt. eigenvalues --    7.06341   7.06650   7.11483   7.13105   7.18000
 Alpha virt. eigenvalues --    7.20354   7.20914   7.27276   7.27365   7.30944
 Alpha virt. eigenvalues --    7.33304   7.33979   7.35467   7.37049   7.38473
 Alpha virt. eigenvalues --    7.41366   7.44092   7.44478   7.47435   7.49873
 Alpha virt. eigenvalues --    7.52301   7.54502   7.55317   7.59104   7.60897
 Alpha virt. eigenvalues --    7.61912   7.62612   7.65334   7.66896   7.69114
 Alpha virt. eigenvalues --    7.70737   7.73626   7.74766   7.76184   7.76509
 Alpha virt. eigenvalues --    7.77299   7.81024   7.81102   7.82506   7.83795
 Alpha virt. eigenvalues --    7.84528   7.89404   7.90716   7.90858   7.95079
 Alpha virt. eigenvalues --    7.95353   7.97038   7.98117   7.98621   8.01923
 Alpha virt. eigenvalues --    8.03034   8.05797   8.07782   8.08065   8.11516
 Alpha virt. eigenvalues --    8.11783   8.12547   8.14089   8.16488   8.19651
 Alpha virt. eigenvalues --    8.22880   8.30422   8.34539   8.36270   8.38495
 Alpha virt. eigenvalues --    8.40060   8.43319   8.50967   8.52903   8.55472
 Alpha virt. eigenvalues --    8.59959   8.60480   8.61601   8.64655   8.71306
 Alpha virt. eigenvalues --    8.73441   8.75728   8.81091   8.82345   8.82373
 Alpha virt. eigenvalues --    8.85979   8.86184   8.91212   8.91889   8.94359
 Alpha virt. eigenvalues --    8.96590   9.01398   9.03074   9.04413   9.05380
 Alpha virt. eigenvalues --    9.07352   9.12719   9.16792   9.19303   9.20781
 Alpha virt. eigenvalues --    9.23941   9.25108   9.25898   9.28349   9.29208
 Alpha virt. eigenvalues --    9.30970   9.31310   9.32207   9.33421   9.34342
 Alpha virt. eigenvalues --    9.35991   9.38169   9.38995   9.45242   9.45926
 Alpha virt. eigenvalues --    9.51204   9.52962   9.58538   9.59506   9.60479
 Alpha virt. eigenvalues --    9.70089   9.71274   9.72808   9.77648   9.79734
 Alpha virt. eigenvalues --    9.90780   9.91693   9.96237  10.00191  10.00959
 Alpha virt. eigenvalues --   10.02644  10.06929  10.11258  10.12511  10.13977
 Alpha virt. eigenvalues --   10.20034  10.22557  10.28968  10.34974  10.36047
 Alpha virt. eigenvalues --   10.40173  10.42468  10.47084  10.56491  10.57312
 Alpha virt. eigenvalues --   10.58534  10.59199  10.79442  10.79859  10.81265
 Alpha virt. eigenvalues --   10.81724  10.94118  10.96083  11.04571  11.13703
 Alpha virt. eigenvalues --   11.19961  11.36878  11.49498  11.61943  11.70117
 Alpha virt. eigenvalues --   11.73845  11.77324  11.85933  11.87245  11.94914
 Alpha virt. eigenvalues --   12.08886  12.18465  12.32092  12.38561  12.60422
 Alpha virt. eigenvalues --   12.70691  12.83190  12.99715  13.11233  13.31913
 Alpha virt. eigenvalues --   13.92618  16.30017  16.41060  16.43922  16.54458
 Alpha virt. eigenvalues --   16.55985  16.58801  16.63123  16.69473  16.73295
 Alpha virt. eigenvalues --   16.78417  16.79164  16.86739  16.99473  17.17490
 Alpha virt. eigenvalues --   17.19315  17.31719  17.44327  17.55302  17.60728
 Alpha virt. eigenvalues --   17.66413  17.75640  17.84515  18.04564  18.11322
 Alpha virt. eigenvalues --   18.53051  19.07471  19.16543  19.25130  19.28925
 Alpha virt. eigenvalues --   19.34323  19.40792  19.43702  19.51936  19.55357
 Alpha virt. eigenvalues --   19.65190  19.67460  19.73759  19.84146  20.08848
 Alpha virt. eigenvalues --   20.32044  21.64711  21.72675  21.77260  21.84095
 Alpha virt. eigenvalues --   22.05803  22.11033  22.48215  22.79812  22.87764
 Alpha virt. eigenvalues --   23.54518  30.61328  31.40933  32.19864  33.24136
 Alpha virt. eigenvalues --   34.33103  43.76276  54.82069
          Condensed to atoms (all electrons):
               1          2          3          4          5          6
     1  O    8.263326  -0.123290   0.485596  -0.099989   0.007907   0.000959
     2  N   -0.123290   6.555982   0.364470  -0.113241   0.392875   0.003545
     3  C    0.485596   0.364470   4.317650   0.469383  -0.017148  -0.021959
     4  C   -0.099989  -0.113241   0.469383   4.954855  -0.033302   0.550360
     5  C    0.007907   0.392875  -0.017148  -0.033302   4.626387  -0.042920
     6  C    0.000959   0.003545  -0.021959   0.550360  -0.042920   4.787098
     7  C    0.003053  -0.102512  -0.012955  -0.076381   0.594830   0.476685
     8  H    0.018794   0.363313  -0.015770   0.012137  -0.019977  -0.001246
     9  H    0.008793   0.006989  -0.022906   0.397908   0.000664  -0.038918
    10  H   -0.000991  -0.040325  -0.000965  -0.002200   0.414971   0.007406
    11  H   -0.002169  -0.002427   0.007194  -0.037696   0.007904   0.392459
    12  H    0.000014   0.005595  -0.000612   0.008679  -0.038704  -0.048763
               7          8          9         10         11         12
     1  O    0.003053   0.018794   0.008793  -0.000991  -0.002169   0.000014
     2  N   -0.102512   0.363313   0.006989  -0.040325  -0.002427   0.005595
     3  C   -0.012955  -0.015770  -0.022906  -0.000965   0.007194  -0.000612
     4  C   -0.076381   0.012137   0.397908  -0.002200  -0.037696   0.008679
     5  C    0.594830  -0.019977   0.000664   0.414971   0.007904  -0.038704
     6  C    0.476685  -0.001246  -0.038918   0.007406   0.392459  -0.048763
     7  C    4.814128   0.004237   0.003314  -0.050898  -0.045278   0.410208
     8  H    0.004237   0.447185  -0.000765  -0.006926   0.000659  -0.000416
     9  H    0.003314  -0.000765   0.573058   0.000496  -0.009390  -0.000518
    10  H   -0.050898  -0.006926   0.000496   0.636744  -0.001379  -0.005639
    11  H   -0.045278   0.000659  -0.009390  -0.001379   0.646173  -0.003591
    12  H    0.410208  -0.000416  -0.000518  -0.005639  -0.003591   0.618946
 Mulliken charges:
               1
     1  O   -0.562002
     2  N   -0.310974
     3  C    0.448022
     4  C   -0.030513
     5  C    0.106513
     6  C   -0.064706
     7  C   -0.018432
     8  H    0.198774
     9  H    0.081273
    10  H    0.049704
    11  H    0.047541
    12  H    0.054800
 Sum of Mulliken charges =  -0.00000
 Mulliken charges with hydrogens summed into heavy atoms:
               1
     1  O   -0.562002
     2  N   -0.112200
     3  C    0.448022
     4  C    0.050760
     5  C    0.156217
     6  C   -0.017165
     7  C    0.036368
 Electronic spatial extent (au):  <R**2>=            631.6925
 Charge=             -0.0000 electrons
 Dipole moment (field-independent basis, Debye):
    X=             -1.4448    Y=             -4.1264    Z=              0.0000  Tot=              4.3720
 Quadrupole moment (field-independent basis, Debye-Ang):
   XX=            -31.4437   YY=            -48.3013   ZZ=            -43.1179
   XY=             -0.7790   XZ=              0.0000   YZ=              0.0000
 Traceless Quadrupole moment (field-independent basis, Debye-Ang):
   XX=              9.5105   YY=             -7.3470   ZZ=             -2.1636
   XY=             -0.7790   XZ=              0.0000   YZ=              0.0000
 Octapole moment (field-independent basis, Debye-Ang**2):
  XXX=            -11.8634  YYY=            -30.0899  ZZZ=              0.0000  XYY=             -1.3380
  XXY=              1.9057  XXZ=              0.0000  XZZ=             -1.6776  YZZ=              5.3512
  YYZ=              0.0000  XYZ=              0.0000
 Hexadecapole moment (field-independent basis, Debye-Ang**3):
 XXXX=           -243.9111 YYYY=           -543.9807 ZZZZ=            -47.5534 XXXY=             -3.7368
 XXXZ=              0.0000 YYYX=             -3.3166 YYYZ=             -0.0000 ZZZX=              0.0000
 ZZZY=             -0.0000 XXYY=           -119.2817 XXZZ=            -62.8339 YYZZ=            -96.5703
 XXYZ=              0.0000 YYXZ=              0.0000 ZZXY=             -0.9581
 N-N= 2.750774566563D+02 E-N=-1.304984007411D+03  KE= 3.221560881053D+02
 Symmetry A'   KE= 3.106381303873D+02
 Symmetry A"   KE= 1.151795771798D+01
 Calling FoFJK, ICntrl=      2127 FMM=F ISym2X=1 I1Cent= 0 IOpClX= 0 NMat=1 NMatS=1 NMatT=0.
 ***** Axes restored to original set *****
 -------------------------------------------------------------------
 Center     Atomic                   Forces (Hartrees/Bohr)
 Number     Number              X              Y              Z
 -------------------------------------------------------------------
      1        8          -0.009178542   -0.015209377    0.000000000
      2        7          -0.005330923   -0.006032535    0.000000000
      3        6           0.015977174    0.037506101   -0.000000000
      4        6           0.007227788   -0.022269239    0.000000000
      5        6           0.004827163   -0.009384767    0.000000000
      6        6          -0.016156813   -0.005668574    0.000000000
      7        6          -0.008936680    0.020436151   -0.000000000
      8        1           0.002966251    0.009005390   -0.000000000
      9        1           0.002560864   -0.005701139    0.000000000
     10        1           0.001808816    0.000969628   -0.000000000
     11        1           0.000847144   -0.000353134    0.000000000
     12        1           0.003387757   -0.003298506    0.000000000
 -------------------------------------------------------------------
 Cartesian Forces:  Max     0.037506101 RMS     0.010067740

 GradGradGradGradGradGradGradGradGradGradGradGradGradGradGradGradGradGrad
 Berny optimization.
 FormGI is forming the generalized inverse of G from B-inverse, IUseBI=4.
 Internal  Forces:  Max     0.021038819 RMS     0.006048844
 Search for a local minimum.
 Step number   1 out of a maximum of   64
 All quantities printed in internal units (Hartrees-Bohrs-Radians)
 Mixed Optimization -- RFO/linear search
 Second derivative matrix not updated -- first step.
 ITU=  0
     Eigenvalues ---    0.01300   0.01527   0.01837   0.01952   0.02069
     Eigenvalues ---    0.02158   0.02298   0.02494   0.02602   0.16000
     Eigenvalues ---    0.16000   0.16000   0.16000   0.16000   0.22000
     Eigenvalues ---    0.22000   0.23420   0.25000   0.32350   0.35546
     Eigenvalues ---    0.35616   0.35652   0.35776   0.37986   0.45097
     Eigenvalues ---    0.45980   0.48525   0.55001   0.56595   0.91904
 RFO step:  Lambda=-6.69060333D-03 EMin= 1.29980170D-02
 Linear search not attempted -- first point.
 Iteration  1 RMS(Cart)=  0.02949084 RMS(Int)=  0.00069385
 Iteration  2 RMS(Cart)=  0.00075370 RMS(Int)=  0.00005910
 Iteration  3 RMS(Cart)=  0.00000014 RMS(Int)=  0.00005910
 ClnCor:  largest displacement from symmetrization is 3.68D-11 for atom    11.
 Variable       Old X    -DE/DX   Delta X   Delta X   Delta X     New X
                                 (Linear)    (Quad)   (Total)
    R1        2.32068  -0.00931   0.00000  -0.01006  -0.01006   2.31062
    R2        2.62215  -0.00059   0.00000  -0.00244  -0.00252   2.61963
    R3        2.59460   0.00004   0.00000  -0.00000  -0.00010   2.59450
    R4        1.91863  -0.00662   0.00000  -0.01447  -0.01447   1.90416
    R5        2.82214  -0.01887   0.00000  -0.05758  -0.05756   2.76458
    R6        2.53291   0.01410   0.00000   0.02450   0.02460   2.55751
    R7        2.04630  -0.00359   0.00000  -0.00989  -0.00989   2.03640
    R8        2.52823   0.01008   0.00000   0.01823   0.01821   2.54644
    R9        2.04433  -0.00167   0.00000  -0.00459  -0.00459   2.03974
   R10        2.72575  -0.00870   0.00000  -0.02026  -0.02018   2.70557
   R11        2.04798  -0.00075   0.00000  -0.00207  -0.00207   2.04591
   R12        2.04686  -0.00344   0.00000  -0.00949  -0.00949   2.03737
    A1        2.15529   0.00612   0.00000   0.02346   0.02328   2.17857
    A2        2.07512  -0.00957   0.00000  -0.05078  -0.05069   2.02443
    A3        2.05277   0.00345   0.00000   0.02732   0.02741   2.08018
    A4        2.16716  -0.01406   0.00000  -0.05206  -0.05202   2.11513
    A5        2.10042   0.02104   0.00000   0.08468   0.08471   2.18513
    A6        2.01561  -0.00698   0.00000  -0.03262  -0.03269   1.98292
    A7        2.08625   0.00868   0.00000   0.03535   0.03547   2.12172
    A8        2.06703  -0.00957   0.00000  -0.04905  -0.04911   2.01792
    A9        2.12991   0.00089   0.00000   0.01370   0.01364   2.14355
   A10        2.10862  -0.00018   0.00000   0.00084   0.00073   2.10935
   A11        2.02864  -0.00113   0.00000  -0.00773  -0.00767   2.02097
   A12        2.14593   0.00131   0.00000   0.00688   0.00694   2.15287
   A13        2.11496  -0.00139   0.00000  -0.00403  -0.00384   2.11112
   A14        2.10803   0.00016   0.00000  -0.00123  -0.00132   2.10671
   A15        2.06019   0.00124   0.00000   0.00526   0.00516   2.06536
   A16        2.08565  -0.00624   0.00000  -0.02301  -0.02294   2.06270
   A17        2.12232  -0.00020   0.00000  -0.00841  -0.00844   2.11388
   A18        2.07522   0.00644   0.00000   0.03142   0.03139   2.10660
    D1        3.14159  -0.00000   0.00000  -0.00000   0.00000   3.14159
    D2       -0.00000  -0.00000   0.00000   0.00000   0.00000   0.00000
    D3       -0.00000  -0.00000   0.00000  -0.00000   0.00000   0.00000
    D4        3.14159  -0.00000   0.00000   0.00000   0.00000   3.14159
    D5        0.00000   0.00000   0.00000  -0.00000   0.00000   0.00000
    D6        3.14159   0.00000   0.00000   0.00000   0.00000   3.14159
    D7        3.14159   0.00000   0.00000  -0.00000   0.00000   3.14159
    D8        0.00000   0.00000   0.00000   0.00000  -0.00000   0.00000
    D9        3.14159   0.00000   0.00000   0.00000   0.00000   3.14159
   D10        0.00000   0.00000   0.00000   0.00000   0.00000   0.00000
   D11        0.00000   0.00000   0.00000   0.00000  -0.00000   0.00000
   D12        3.14159   0.00000   0.00000   0.00000   0.00000   3.14159
   D13       -0.00000  -0.00000   0.00000  -0.00000   0.00000   0.00000
   D14        3.14159  -0.00000   0.00000  -0.00000   0.00000   3.14159
   D15        3.14159  -0.00000   0.00000  -0.00000   0.00000   3.14159
   D16       -0.00000  -0.00000   0.00000  -0.00000   0.00000   0.00000
   D17       -0.00000  -0.00000   0.00000  -0.00000   0.00000   0.00000
   D18        3.14159  -0.00000   0.00000   0.00000   0.00000   3.14159
   D19        3.14159  -0.00000   0.00000  -0.00000   0.00000   3.14159
   D20       -0.00000  -0.00000   0.00000   0.00000   0.00000   0.00000
   D21        0.00000   0.00000   0.00000   0.00000   0.00000   0.00000
   D22        3.14159   0.00000   0.00000  -0.00000   0.00000   3.14159
   D23        3.14159   0.00000   0.00000   0.00000   0.00000   3.14159
   D24        0.00000   0.00000   0.00000   0.00000  -0.00000   0.00000
         Item               Value     Threshold  Converged?
 Maximum Force            0.021039     0.000450     NO 
 RMS     Force            0.006049     0.000300     NO 
 Maximum Displacement     0.106750     0.001800     NO 
 RMS     Displacement     0.029472     0.001200     NO 
 Predicted change in Energy=-3.430381D-03
 GradGradGradGradGradGradGradGradGradGradGradGradGradGradGradGradGradGrad

                          Input orientation:                          
 ---------------------------------------------------------------------
 Center     Atomic      Atomic             Coordinates (Angstroms)
 Number     Number       Type             X           Y           Z
 ---------------------------------------------------------------------
      1          8           0        2.283042   -0.077853    0.000000
      2          7           0        0.282129   -1.158873    0.000000
      3          6           0        1.062047   -0.012832   -0.000000
      4          6           0        0.283541    1.225778   -0.000000
      5          6           0       -1.090751   -1.172919    0.000000
      6          6           0       -1.069762    1.211953   -0.000000
      7          6           0       -1.793680   -0.023269    0.000000
      8          1           0        0.782470   -2.033510    0.000000
      9          1           0        0.858272    2.137339   -0.000000
     10          1           0       -1.550446   -2.149522    0.000000
     11          1           0       -1.632068    2.137123   -0.000000
     12          1           0       -2.871793   -0.029414    0.000000
 ---------------------------------------------------------------------
                    Distance matrix (angstroms):
                    1          2          3          4          5
     1  O    0.000000
     2  N    2.274260   0.000000
     3  C    1.222725   1.386248   0.000000
     4  C    2.386935   2.384652   1.462951   0.000000
     5  C    3.547062   1.372952   2.445474   2.764494   0.000000
     6  C    3.592339   2.729181   2.458599   1.353374   2.384964
     7  C    4.077088   2.366132   2.855747   2.423834   1.347517
     8  H    2.465017   1.007636   2.039927   3.297255   2.061450
     9  H    2.633827   3.346185   2.159805   1.077617   3.841418
    10  H    4.357458   2.083199   3.374991   3.841375   1.079386
    11  H    4.498245   3.811528   3.446820   2.121346   3.354013
    12  H    5.155062   3.350060   3.933875   3.395827   2.116533
                    6          7          8          9         10
     6  C    0.000000
     7  C    1.431724   0.000000
     8  H    3.736816   3.267662   0.000000
     9  H    2.138610   3.420684   4.171538   0.000000
    10  H    3.395670   2.140120   2.335799   4.917224   0.000000
    11  H    1.082649   2.166429   4.819147   2.490340   4.287422
    12  H    2.188220   1.078130   4.167737   4.313722   2.498162
                   11         12
    11  H    0.000000
    12  H    2.496157   0.000000
 Stoichiometry    C5H5NO
 Framework group  CS[SG(C5H5NO)]
 Deg. of freedom    21
 Full point group                 CS      NOp   2
 Largest Abelian subgroup         CS      NOp   2
 Largest concise Abelian subgroup C1      NOp   1
                         Standard orientation:                         
 ---------------------------------------------------------------------
 Center     Atomic      Atomic             Coordinates (Angstroms)
 Number     Number       Type             X           Y           Z
 ---------------------------------------------------------------------
      1          8           0       -0.080218    2.278739    0.000000
      2          7           0       -1.136242    0.264522    0.000000
      3          6           0        0.000000    1.058648    0.000000
      4          6           0        1.248207    0.295625    0.000000
      5          6           0       -1.133193   -1.108427    0.000000
      6          6           0        1.251233   -1.057746    0.000000
      7          6           0        0.025119   -1.796988    0.000000
      8          1           0       -2.017040    0.753934    0.000000
      9          1           0        2.152541    0.881660    0.000000
     10          1           0       -2.103997   -1.580246    0.000000
     11          1           0        2.183333   -1.608490    0.000000
     12          1           0        0.032399   -2.875093    0.000000
 ---------------------------------------------------------------------
 Rotational constants (GHZ):      5.6817972      2.8040353      1.8774775
 Basis read from rwf:  (5D, 7F)
 There are   506 symmetry adapted cartesian basis functions of A'  symmetry.
 There are   249 symmetry adapted cartesian basis functions of A"  symmetry.
 There are   402 symmetry adapted basis functions of A'  symmetry.
 There are   216 symmetry adapted basis functions of A"  symmetry.
   618 basis functions,   964 primitive gaussians,   755 cartesian basis functions
    25 alpha electrons       25 beta electrons
       nuclear repulsion energy       275.8170727429 Hartrees.
 NAtoms=   12 NActive=   12 NUniq=   12 SFac= 1.00D+00 NAtFMM=   60 NAOKFM=F Big=F
 Integral buffers will be    131072 words long.
 Raffenetti 2 integral format.
 Two-electron integral symmetry is turned on.
 One-electron integrals computed using PRISM.
 NBasis=   618 RedAO= T EigKep=  1.23D-05  NBF=   402   216
 NBsUse=   618 1.00D-06 EigRej= -1.00D+00 NBFU=   402   216
 Initial guess from the checkpoint file:  "PY_pc-3_B3LYP_OPT_FREQ.chk"
 B after Tr=     0.000000    0.000000    0.000000
         Rot=    0.999905   -0.000000    0.000000   -0.013756 Ang=  -1.58 deg.
 Initial guess orbital symmetries:
       Occupied  (A') (A') (A') (A') (A') (A') (A') (A') (A') (A')
                 (A') (A') (A') (A') (A') (A') (A') (A") (A') (A')
                 (A') (A") (A") (A') (A")
       Virtual   (A') (A') (A') (A') (A') (A') (A') (A') (A') (A')
                 (A') (A') (A') (A') (A') (A') (A') (A') (A') (A')
                 (A') (A') (A') (A') (A') (A') (A') (A') (A') (A')
                 (A') (A') (A') (A') (A') (A') (A') (A') (A') (A')
                 (A') (A') (A') (A') (A') (A') (A') (A') (A') (A')
                 (A') (A') (A') (A') (A') (A') (A') (A') (A') (A')
                 (A') (A') (A') (A') (A') (A') (A') (A') (A') (A')
                 (A') (A') (A') (A') (A') (A') (A') (A') (A') (A')
                 (A') (A') (A') (A') (A') (A') (A') (A') (A') (A')
                 (A') (A') (A') (A') (A') (A') (A') (A') (A') (A')
                 (A') (A') (A') (A') (A') (A') (A') (A') (A') (A')
                 (A') (A') (A') (A') (A') (A') (A') (A') (A') (A')
                 (A') (A') (A') (A') (A') (A') (A') (A') (A') (A')
                 (A') (A') (A') (A') (A') (A') (A') (A') (A') (A')
                 (A') (A') (A') (A') (A') (A') (A') (A') (A') (A')
                 (A') (A') (A') (A') (A') (A') (A') (A') (A') (A')
                 (A') (A') (A') (A') (A') (A') (A') (A') (A') (A')
                 (A') (A') (A') (A') (A') (A') (A') (A') (A') (A')
                 (A') (A') (A') (A') (A') (A') (A') (A') (A') (A')
                 (A') (A') (A') (A') (A') (A') (A') (A') (A') (A')
                 (A') (A') (A') (A') (A') (A') (A') (A') (A') (A')
                 (A') (A') (A') (A') (A') (A') (A') (A') (A') (A')
                 (A') (A') (A') (A') (A') (A') (A') (A') (A') (A')
                 (A') (A') (A') (A') (A') (A') (A') (A') (A') (A')
                 (A') (A') (A') (A') (A') (A') (A') (A') (A') (A')
                 (A') (A') (A') (A') (A') (A') (A') (A') (A') (A')
                 (A') (A') (A') (A') (A') (A') (A') (A') (A') (A')
                 (A') (A') (A') (A') (A') (A') (A') (A') (A') (A')
                 (A') (A') (A') (A') (A') (A') (A') (A') (A') (A')
                 (A') (A') (A') (A') (A') (A') (A') (A') (A') (A')
                 (A') (A') (A') (A') (A') (A') (A') (A') (A') (A')
                 (A') (A') (A') (A') (A') (A') (A') (A') (A') (A')
                 (A') (A') (A') (A') (A') (A') (A') (A') (A') (A')
                 (A') (A') (A') (A') (A') (A') (A') (A') (A') (A')
                 (A') (A') (A') (A') (A') (A') (A') (A') (A') (A')
                 (A') (A') (A') (A') (A') (A') (A') (A') (A') (A')
                 (A') (A') (A') (A') (A') (A') (A') (A') (A') (A')
                 (A') (A') (A') (A') (A') (A') (A') (A') (A') (A')
                 (A') (A") (A") (A") (A") (A") (A") (A") (A") (A")
                 (A") (A") (A") (A") (A") (A") (A") (A") (A") (A")
                 (A") (A") (A") (A") (A") (A") (A") (A") (A") (A")
                 (A") (A") (A") (A") (A") (A") (A") (A") (A") (A")
                 (A") (A") (A") (A") (A") (A") (A") (A") (A") (A")
                 (A") (A") (A") (A") (A") (A") (A") (A") (A") (A")
                 (A") (A") (A") (A") (A") (A") (A") (A") (A") (A")
                 (A") (A") (A") (A") (A") (A") (A") (A") (A") (A")
                 (A") (A") (A") (A") (A") (A") (A") (A") (A") (A")
                 (A") (A") (A") (A") (A") (A") (A") (A") (A") (A")
                 (A") (A") (A") (A") (A") (A") (A") (A") (A") (A")
                 (A") (A") (A") (A") (A") (A") (A") (A") (A") (A")
                 (A") (A") (A") (A") (A") (A") (A") (A") (A") (A")
                 (A") (A") (A") (A") (A") (A") (A") (A") (A") (A")
                 (A") (A") (A") (A") (A") (A") (A") (A") (A") (A")
                 (A") (A") (A") (A") (A") (A") (A") (A") (A") (A")
                 (A") (A") (A") (A") (A") (A") (A") (A") (A") (A")
                 (A") (A") (A") (A") (A") (A") (A") (A") (A") (A")
                 (A") (A") (A") (A") (A") (A") (A") (A") (A") (A")
                 (A") (A") (A") (A") (A") (A") (A") (A") (A") (A")
                 (A") (A") (A") (A") (A") (A") (A") (A") (A") (A")
                 (A") (A") (A")
 ExpMin= 5.19D-02 ExpMax= 1.64D+05 ExpMxC= 5.17D+02 IAcc=2 IRadAn=         4 AccDes= 0.00D+00
 Harris functional with IExCor=  402 and IRadAn=       4 diagonalized for initial guess.
 HarFok:  IExCor=  402 AccDes= 0.00D+00 IRadAn=         4 IDoV= 1 UseB2=F ITyADJ=14
 ICtDFT=  3500011 ScaDFX=  1.000000  1.000000  1.000000  1.000000
 FoFCou: FMM=F IPFlag=           0 FMFlag=      100000 FMFlg1=           0
         NFxFlg=           0 DoJE=T BraDBF=F KetDBF=T FulRan=T
         wScrn=  0.000000 ICntrl=     500 IOpCl=  0 I1Cent=   200000004 NGrid=           0
         NMat0=    1 NMatS0=      1 NMatT0=    0 NMatD0=    1 NMtDS0=    0 NMtDT0=    0
 Petite list used in FoFCou.
 Requested convergence on RMS density matrix=1.00D-08 within 128 cycles.
 Requested convergence on MAX density matrix=1.00D-06.
 Requested convergence on             energy=1.00D-06.
 No special actions if energy rises.
 Integral accuracy reduced to 1.0D-05 until final iterations.
 Initial convergence to 1.0D-05 achieved.  Increase integral accuracy.
 SCF Done:  E(RB3LYP) =  -323.675566001     A.U. after   13 cycles
            NFock= 13  Conv=0.21D-08     -V/T= 2.0045
 Calling FoFJK, ICntrl=      2127 FMM=F ISym2X=1 I1Cent= 0 IOpClX= 0 NMat=1 NMatS=1 NMatT=0.
 ***** Axes restored to original set *****
 -------------------------------------------------------------------
 Center     Atomic                   Forces (Hartrees/Bohr)
 Number     Number              X              Y              Z
 -------------------------------------------------------------------
      1        8          -0.000845817   -0.002474968    0.000000000
      2        7          -0.013836476   -0.005923258    0.000000000
      3        6           0.003977967    0.014757628   -0.000000000
      4        6           0.004172344   -0.006110787    0.000000000
      5        6           0.007701433   -0.005724513    0.000000000
      6        6          -0.004647734   -0.004207453    0.000000000
      7        6          -0.000463744    0.009231667   -0.000000000
      8        1           0.001866541    0.000379783   -0.000000000
      9        1           0.000092428    0.001178450   -0.000000000
     10        1           0.000163785   -0.000156122    0.000000000
     11        1           0.001460894    0.000426618   -0.000000000
     12        1           0.000358378   -0.001377046    0.000000000
 -------------------------------------------------------------------
 Cartesian Forces:  Max     0.014757628 RMS     0.004558199

 GradGradGradGradGradGradGradGradGradGradGradGradGradGradGradGradGradGrad
 Berny optimization.
 Using GEDIIS/GDIIS optimizer.
 FormGI is forming the generalized inverse of G from B-inverse, IUseBI=4.
 Internal  Forces:  Max     0.008256002 RMS     0.002068362
 Search for a local minimum.
 Step number   2 out of a maximum of   64
 All quantities printed in internal units (Hartrees-Bohrs-Radians)
 Mixed Optimization -- RFO/linear search
 Update second derivatives using D2CorX and points    1    2
 DE= -3.95D-03 DEPred=-3.43D-03 R= 1.15D+00
 TightC=F SS=  1.41D+00  RLast= 1.60D-01 DXNew= 5.0454D-01 4.7991D-01
 Trust test= 1.15D+00 RLast= 1.60D-01 DXMaxT set to 4.80D-01
 ITU=  1  0
 Use linear search instead of GDIIS.
     Eigenvalues ---    0.01270   0.01524   0.01860   0.01957   0.02072
     Eigenvalues ---    0.02151   0.02303   0.02497   0.02600   0.14531
     Eigenvalues ---    0.16000   0.16000   0.16000   0.16427   0.21032
     Eigenvalues ---    0.22000   0.23200   0.23943   0.30744   0.35540
     Eigenvalues ---    0.35599   0.35756   0.35829   0.37645   0.45058
     Eigenvalues ---    0.46472   0.50438   0.55054   0.56868   0.92026
 RFO step:  Lambda=-6.03004852D-04 EMin= 1.26984747D-02
 Quartic linear search produced a step of  0.20634.
 Iteration  1 RMS(Cart)=  0.00778317 RMS(Int)=  0.00007853
 Iteration  2 RMS(Cart)=  0.00008050 RMS(Int)=  0.00001506
 Iteration  3 RMS(Cart)=  0.00000000 RMS(Int)=  0.00001506
 ClnCor:  largest displacement from symmetrization is 6.64D-13 for atom     1.
 Variable       Old X    -DE/DX   Delta X   Delta X   Delta X     New X
                                 (Linear)    (Quad)   (Total)
    R1        2.31062  -0.00071  -0.00208   0.00026  -0.00182   2.30879
    R2        2.61963   0.00826  -0.00052   0.02123   0.02070   2.64033
    R3        2.59450  -0.00668  -0.00002  -0.01583  -0.01588   2.57862
    R4        1.90416   0.00060  -0.00299   0.00335   0.00036   1.90452
    R5        2.76458  -0.00613  -0.01188  -0.01528  -0.02714   2.73744
    R6        2.55751   0.00213   0.00508   0.00143   0.00654   2.56404
    R7        2.03640   0.00105  -0.00204   0.00475   0.00271   2.03911
    R8        2.54644   0.00491   0.00376   0.00809   0.01184   2.55828
    R9        2.03974   0.00007  -0.00095   0.00080  -0.00014   2.03960
   R10        2.70557  -0.00298  -0.00416  -0.00678  -0.01093   2.69463
   R11        2.04591  -0.00039  -0.00043  -0.00108  -0.00151   2.04440
   R12        2.03737  -0.00035  -0.00196  -0.00002  -0.00198   2.03539
    A1        2.17857   0.00130   0.00480   0.00455   0.00931   2.18788
    A2        2.02443  -0.00237  -0.01046  -0.01010  -0.02053   2.00390
    A3        2.08018   0.00108   0.00566   0.00555   0.01122   2.09141
    A4        2.11513  -0.00249  -0.01073  -0.00549  -0.01622   2.09892
    A5        2.18513   0.00332   0.01748   0.00528   0.02276   2.20789
    A6        1.98292  -0.00083  -0.00675   0.00021  -0.00654   1.97638
    A7        2.12172   0.00004   0.00732  -0.00472   0.00264   2.12436
    A8        2.01792   0.00054  -0.01013   0.01071   0.00056   2.01848
    A9        2.14355  -0.00059   0.00281  -0.00599  -0.00320   2.14035
   A10        2.10935  -0.00160   0.00015  -0.00854  -0.00843   2.10092
   A11        2.02097   0.00058  -0.00158   0.00356   0.00200   2.02297
   A12        2.15287   0.00102   0.00143   0.00498   0.00643   2.15930
   A13        2.11112   0.00102  -0.00079   0.00548   0.00473   2.11585
   A14        2.10671  -0.00201  -0.00027  -0.01359  -0.01388   2.09283
   A15        2.06536   0.00099   0.00107   0.00811   0.00915   2.07451
   A16        2.06270   0.00006  -0.00473   0.00302  -0.00171   2.06099
   A17        2.11388  -0.00144  -0.00174  -0.00947  -0.01121   2.10267
   A18        2.10660   0.00138   0.00648   0.00645   0.01292   2.11953
    D1        3.14159   0.00000   0.00000   0.00000   0.00000   3.14159
    D2       -0.00000  -0.00000   0.00000   0.00000   0.00000   0.00000
    D3        0.00000   0.00000   0.00000   0.00000   0.00000   0.00000
    D4        3.14159   0.00000   0.00000   0.00000   0.00000   3.14159
    D5        0.00000  -0.00000   0.00000  -0.00000   0.00000   0.00000
    D6        3.14159  -0.00000   0.00000  -0.00000   0.00000   3.14159
    D7        3.14159   0.00000   0.00000  -0.00000   0.00000   3.14159
    D8        0.00000  -0.00000   0.00000  -0.00000   0.00000   0.00000
    D9        3.14159  -0.00000   0.00000  -0.00000   0.00000   3.14159
   D10       -0.00000  -0.00000   0.00000  -0.00000   0.00000   0.00000
   D11        0.00000  -0.00000   0.00000  -0.00000   0.00000   0.00000
   D12        3.14159  -0.00000   0.00000  -0.00000   0.00000   3.14159
   D13        0.00000   0.00000   0.00000   0.00000  -0.00000   0.00000
   D14        3.14159   0.00000   0.00000   0.00000   0.00000   3.14159
   D15        3.14159  -0.00000   0.00000   0.00000   0.00000   3.14159
   D16       -0.00000  -0.00000   0.00000   0.00000   0.00000   0.00000
   D17       -0.00000  -0.00000   0.00000   0.00000   0.00000   0.00000
   D18        3.14159  -0.00000   0.00000   0.00000   0.00000   3.14159
   D19        3.14159  -0.00000   0.00000   0.00000   0.00000   3.14159
   D20       -0.00000  -0.00000   0.00000   0.00000   0.00000   0.00000
   D21        0.00000   0.00000   0.00000  -0.00000   0.00000   0.00000
   D22        3.14159   0.00000   0.00000  -0.00000   0.00000   3.14159
   D23        3.14159   0.00000   0.00000   0.00000   0.00000   3.14159
   D24        0.00000  -0.00000   0.00000  -0.00000  -0.00000   0.00000
         Item               Value     Threshold  Converged?
 Maximum Force            0.008256     0.000450     NO 
 RMS     Force            0.002068     0.000300     NO 
 Maximum Displacement     0.025797     0.001800     NO 
 RMS     Displacement     0.007799     0.001200     NO 
 Predicted change in Energy=-4.285663D-04
 GradGradGradGradGradGradGradGradGradGradGradGradGradGradGradGradGradGrad

                          Input orientation:                          
 ---------------------------------------------------------------------
 Center     Atomic      Atomic             Coordinates (Angstroms)
 Number     Number       Type             X           Y           Z
 ---------------------------------------------------------------------
      1          8           0        2.279871   -0.089601    0.000000
      2          7           0        0.271796   -1.153977    0.000000
      3          6           0        1.061310   -0.001226   -0.000000
      4          6           0        0.286085    1.222472   -0.000000
      5          6           0       -1.092565   -1.176579    0.000000
      6          6           0       -1.070664    1.207367   -0.000000
      7          6           0       -1.796339   -0.020107   -0.000000
      8          1           0        0.787514   -2.019859    0.000000
      9          1           0        0.857816    2.137605   -0.000000
     10          1           0       -1.547993   -2.155096    0.000000
     11          1           0       -1.620526    2.139060   -0.000000
     12          1           0       -2.873304   -0.036059   -0.000000
 ---------------------------------------------------------------------
                    Distance matrix (angstroms):
                    1          2          3          4          5
     1  O    0.000000
     2  N    2.272721   0.000000
     3  C    1.221762   1.397200   0.000000
     4  C    2.386780   2.376492   1.448589   0.000000
     5  C    3.543282   1.364548   2.453698   2.766970   0.000000
     6  C    3.592800   2.716273   2.450716   1.356833   2.384046
     7  C    4.076803   2.358568   2.857712   2.424973   1.353782
     8  H    2.439881   1.007828   2.037117   3.280875   2.060539
     9  H    2.642478   3.343341   2.148490   1.079048   3.845491
    10  H    4.349576   2.076986   3.383433   3.843411   1.079310
    11  H    4.492219   3.798022   3.431190   2.115490   3.357410
    12  H    5.153453   3.337872   3.934768   3.400829   2.114666
                    6          7          8          9         10
     6  C    0.000000
     7  C    1.425937   0.000000
     8  H    3.723951   3.267309   0.000000
     9  H    2.141116   3.420565   4.158058   0.000000
    10  H    3.396174   2.149384   2.339420   4.920894   0.000000
    11  H    1.081850   2.166313   4.805753   2.478342   4.294768
    12  H    2.189890   1.077083   4.163779   4.318110   2.499353
                   11         12
    11  H    0.000000
    12  H    2.510099   0.000000
 Stoichiometry    C5H5NO
 Framework group  CS[SG(C5H5NO)]
 Deg. of freedom    21
 Full point group                 CS      NOp   2
 Largest Abelian subgroup         CS      NOp   2
 Largest concise Abelian subgroup C1      NOp   1
                         Standard orientation:                         
 ---------------------------------------------------------------------
 Center     Atomic      Atomic             Coordinates (Angstroms)
 Number     Number       Type             X           Y           Z
 ---------------------------------------------------------------------
      1          8           0       -0.117686    2.276257    0.000000
      2          7           0       -1.133410    0.243140    0.000000
      3          6           0       -0.000000    1.060177    0.000000
      4          6           0        1.242006    0.314637   -0.000000
      5          6           0       -1.123159   -1.121370    0.000000
      6          6           0        1.259568   -1.042083   -0.000000
      7          6           0        0.049920   -1.797099   -0.000000
      8          1           0       -2.011457    0.737864    0.000000
      9          1           0        2.143110    0.908233   -0.000000
     10          1           0       -2.090429   -1.600222    0.000000
     11          1           0        2.204229   -1.569356   -0.000000
     12          1           0        0.059899   -2.874135   -0.000000
 ---------------------------------------------------------------------
 Rotational constants (GHZ):      5.6998630      2.8061813      1.8804098
 Basis read from rwf:  (5D, 7F)
 There are   506 symmetry adapted cartesian basis functions of A'  symmetry.
 There are   249 symmetry adapted cartesian basis functions of A"  symmetry.
 There are   402 symmetry adapted basis functions of A'  symmetry.
 There are   216 symmetry adapted basis functions of A"  symmetry.
   618 basis functions,   964 primitive gaussians,   755 cartesian basis functions
    25 alpha electrons       25 beta electrons
       nuclear repulsion energy       276.0367818551 Hartrees.
 NAtoms=   12 NActive=   12 NUniq=   12 SFac= 1.00D+00 NAtFMM=   60 NAOKFM=F Big=F
 Integral buffers will be    131072 words long.
 Raffenetti 2 integral format.
 Two-electron integral symmetry is turned on.
 One-electron integrals computed using PRISM.
 NBasis=   618 RedAO= T EigKep=  1.22D-05  NBF=   402   216
 NBsUse=   618 1.00D-06 EigRej= -1.00D+00 NBFU=   402   216
 Initial guess from the checkpoint file:  "PY_pc-3_B3LYP_OPT_FREQ.chk"
 B after Tr=    -0.000000    0.000000    0.000000
         Rot=    0.999979    0.000000   -0.000000   -0.006470 Ang=  -0.74 deg.
 Initial guess orbital symmetries:
       Occupied  (A') (A') (A') (A') (A') (A') (A') (A') (A') (A')
                 (A') (A') (A') (A') (A') (A') (A') (A") (A') (A')
                 (A') (A") (A") (A') (A")
       Virtual   (A') (A') (A') (A') (A') (A') (A') (A') (A') (A')
                 (A') (A') (A') (A') (A') (A') (A') (A') (A') (A')
                 (A') (A') (A') (A') (A') (A') (A') (A') (A') (A')
                 (A') (A') (A') (A') (A') (A') (A') (A') (A') (A')
                 (A') (A') (A') (A') (A') (A') (A') (A') (A') (A')
                 (A') (A') (A') (A') (A') (A') (A') (A') (A') (A')
                 (A') (A') (A') (A') (A') (A') (A') (A') (A') (A')
                 (A') (A') (A') (A') (A') (A') (A') (A') (A') (A')
                 (A') (A') (A') (A') (A') (A') (A') (A') (A') (A')
                 (A') (A') (A') (A') (A') (A') (A') (A') (A') (A')
                 (A') (A') (A') (A') (A') (A') (A') (A') (A') (A')
                 (A') (A') (A') (A') (A') (A') (A') (A') (A') (A')
                 (A') (A') (A') (A') (A') (A') (A') (A') (A') (A')
                 (A') (A') (A') (A') (A') (A') (A') (A') (A') (A')
                 (A') (A') (A') (A') (A') (A') (A') (A') (A') (A')
                 (A') (A') (A') (A') (A') (A') (A') (A') (A') (A')
                 (A') (A') (A') (A') (A') (A') (A') (A') (A') (A')
                 (A') (A') (A') (A') (A') (A') (A') (A') (A') (A')
                 (A') (A') (A') (A') (A') (A') (A') (A') (A') (A')
                 (A') (A') (A') (A') (A') (A') (A') (A') (A') (A')
                 (A') (A') (A') (A') (A') (A') (A') (A') (A') (A')
                 (A') (A') (A') (A') (A') (A') (A') (A') (A') (A')
                 (A') (A') (A') (A') (A') (A') (A') (A') (A') (A')
                 (A') (A') (A') (A') (A') (A') (A') (A') (A') (A')
                 (A') (A') (A') (A') (A') (A') (A') (A') (A') (A')
[...]
 Vib (V=0)    2  0.117681D+01          0.070706          0.162806
 Vib (V=0)    3  0.112199D+01          0.049988          0.115102
 Vib (V=0)    4  0.110139D+01          0.041941          0.096574
 Vib (V=0)    5  0.107548D+01          0.031604          0.072770
 Vib (V=0)    6  0.105272D+01          0.022314          0.051381
 Electronic      0.100000D+01          0.000000          0.000000
 Translational   0.364162D+08          7.561295         17.410525
 Rotational      0.158489D+06          5.200000         11.973443
 ***** Axes restored to original set *****
 -------------------------------------------------------------------
 Center     Atomic                   Forces (Hartrees/Bohr)
 Number     Number              X              Y              Z
 -------------------------------------------------------------------
      1        8          -0.000218718    0.000042089   -0.000000000
      2        7          -0.000024156   -0.000096316    0.000000000
      3        6           0.000270830   -0.000037383    0.000000000
      4        6           0.000032020    0.000057133   -0.000000000
      5        6           0.000113690    0.000120114   -0.000000000
      6        6           0.000063624    0.000058507   -0.000000000
      7        6          -0.000056783   -0.000208900    0.000000000
      8        1          -0.000035722   -0.000013522    0.000000000
      9        1          -0.000057768    0.000001705   -0.000000000
     10        1          -0.000068454    0.000014063   -0.000000000
     11        1          -0.000017345    0.000009362   -0.000000000
     12        1          -0.000001217    0.000053148   -0.000000000
 -------------------------------------------------------------------
 Cartesian Forces:  Max     0.000270830 RMS     0.000080466
 FormGI is forming the generalized inverse of G from B-inverse, IUseBI=4.

 GradGradGradGradGradGradGradGradGradGradGradGradGradGradGradGradGradGrad
 Berny optimization.
 Internal  Forces:  Max     0.000221499 RMS     0.000044553
 Search for a local minimum.
 Step number   1 out of a maximum of    2
 All quantities printed in internal units (Hartrees-Bohrs-Radians)
 Second derivative matrix not updated -- analytic derivatives used.
 ITU=  0
     Eigenvalues ---    0.00826   0.01132   0.01567   0.01730   0.01986
     Eigenvalues ---    0.02230   0.02679   0.03281   0.04699   0.10340
     Eigenvalues ---    0.10911   0.11177   0.12183   0.12735   0.17057
     Eigenvalues ---    0.19487   0.20381   0.23126   0.30778   0.31285
     Eigenvalues ---    0.35446   0.36052   0.36315   0.36608   0.37421
     Eigenvalues ---    0.41322   0.46080   0.50494   0.53386   0.78362
 Angle between quadratic step and forces=  33.80 degrees.
 Linear search not attempted -- first point.
 Iteration  1 RMS(Cart)=  0.00024502 RMS(Int)=  0.00000006
 Iteration  2 RMS(Cart)=  0.00000006 RMS(Int)=  0.00000000
 ClnCor:  largest displacement from symmetrization is 2.81D-11 for atom     8.
 Variable       Old X    -DE/DX   Delta X   Delta X   Delta X     New X
                                 (Linear)    (Quad)   (Total)
    R1        2.30845  -0.00022   0.00000  -0.00037  -0.00037   2.30808
    R2        2.65732   0.00009   0.00000   0.00037   0.00037   2.65768
    R3        2.56784  -0.00002   0.00000  -0.00006  -0.00006   2.56778
    R4        1.90617  -0.00001   0.00000  -0.00003  -0.00003   1.90614
    R5        2.73469   0.00007   0.00000   0.00027   0.00027   2.73497
    R6        2.56897  -0.00002   0.00000  -0.00006  -0.00006   2.56891
    R7        2.03944  -0.00003   0.00000  -0.00008  -0.00008   2.03936
    R8        2.56421  -0.00008   0.00000  -0.00020  -0.00020   2.56400
    R9        2.04029   0.00002   0.00000   0.00007   0.00007   2.04036
   R10        2.68646   0.00005   0.00000   0.00022   0.00022   2.68668
   R11        2.04495   0.00002   0.00000   0.00005   0.00005   2.04500
   R12        2.03628   0.00000   0.00000  -0.00001  -0.00001   2.03627
    A1        2.18811  -0.00004   0.00000  -0.00018  -0.00018   2.18794
    A2        1.99671   0.00005   0.00000   0.00039   0.00039   1.99709
    A3        2.09837  -0.00001   0.00000  -0.00021  -0.00021   2.09815
    A4        2.09366   0.00004   0.00000   0.00017   0.00017   2.09383
    A5        2.21538  -0.00003   0.00000  -0.00009  -0.00009   2.21529
    A6        1.97415  -0.00001   0.00000  -0.00008  -0.00008   1.97406
    A7        2.12180  -0.00001   0.00000   0.00004   0.00004   2.12184
    A8        2.03027   0.00006   0.00000   0.00039   0.00039   2.03066
    A9        2.13111  -0.00005   0.00000  -0.00043  -0.00043   2.13069
   A10        2.10181   0.00006   0.00000   0.00032   0.00032   2.10213
   A11        2.02835   0.00004   0.00000   0.00036   0.00036   2.02871
   A12        2.15303  -0.00010   0.00000  -0.00068  -0.00068   2.15235
   A13        2.12067   0.00001   0.00000   0.00003   0.00003   2.12070
   A14        2.08550   0.00001   0.00000   0.00009   0.00009   2.08560
   A15        2.07701  -0.00002   0.00000  -0.00012  -0.00012   2.07689
   A16        2.05983  -0.00001   0.00000  -0.00013  -0.00013   2.05970
   A17        2.10057   0.00006   0.00000   0.00051   0.00051   2.10108
   A18        2.12279  -0.00005   0.00000  -0.00038  -0.00038   2.12240
    D1        3.14159   0.00000   0.00000   0.00000   0.00000   3.14159
    D2       -0.00000  -0.00000   0.00000   0.00000   0.00000   0.00000
    D3        0.00000   0.00000   0.00000   0.00000   0.00000   0.00000
    D4        3.14159  -0.00000   0.00000   0.00000   0.00000   3.14159
    D5        0.00000   0.00000   0.00000  -0.00000   0.00000   0.00000
    D6        3.14159  -0.00000   0.00000  -0.00000   0.00000   3.14159
    D7        3.14159  -0.00000   0.00000  -0.00000   0.00000   3.14159
    D8       -0.00000  -0.00000   0.00000   0.00000   0.00000   0.00000
    D9        3.14159   0.00000   0.00000  -0.00000   0.00000   3.14159
   D10       -0.00000   0.00000   0.00000  -0.00000   0.00000   0.00000
   D11        0.00000   0.00000   0.00000  -0.00000   0.00000   0.00000
   D12        3.14159   0.00000   0.00000  -0.00000   0.00000   3.14159
   D13       -0.00000  -0.00000   0.00000  -0.00000   0.00000   0.00000
   D14        3.14159  -0.00000   0.00000  -0.00000   0.00000   3.14159
   D15        3.14159  -0.00000   0.00000  -0.00000   0.00000   3.14159
   D16        0.00000  -0.00000   0.00000  -0.00000  -0.00000   0.00000
   D17       -0.00000   0.00000   0.00000  -0.00000   0.00000   0.00000
   D18        3.14159  -0.00000   0.00000  -0.00000   0.00000   3.14159
   D19        3.14159   0.00000   0.00000  -0.00000   0.00000   3.14159
   D20       -0.00000   0.00000   0.00000  -0.00000   0.00000   0.00000
   D21        0.00000   0.00000   0.00000   0.00000  -0.00000   0.00000
   D22        3.14159   0.00000   0.00000   0.00000   0.00000   3.14159
   D23        3.14159   0.00000   0.00000   0.00000   0.00000   3.14159
   D24        0.00000   0.00000   0.00000   0.00000   0.00000   0.00000
         Item               Value     Threshold  Converged?
 Maximum Force            0.000221     0.000450     YES
 RMS     Force            0.000045     0.000300     YES
 Maximum Displacement     0.000765     0.001800     YES
 RMS     Displacement     0.000245     0.001200     YES
 Predicted change in Energy=-2.021340D-07
 Optimization completed.
    -- Stationary point found.
                           ----------------------------
                           !   Optimized Parameters   !
                           ! (Angstroms and Degrees)  !
 --------------------------                            --------------------------
 ! Name  Definition              Value          Derivative Info.                !
 --------------------------------------------------------------------------------
 ! R1    R(1,3)                  1.2216         -DE/DX =   -0.0002              !
 ! R2    R(2,3)                  1.4062         -DE/DX =    0.0001              !
 ! R3    R(2,5)                  1.3588         -DE/DX =    0.0                 !
 ! R4    R(2,8)                  1.0087         -DE/DX =    0.0                 !
 ! R5    R(3,4)                  1.4471         -DE/DX =    0.0001              !
 ! R6    R(4,6)                  1.3594         -DE/DX =    0.0                 !
 ! R7    R(4,9)                  1.0792         -DE/DX =    0.0                 !
 ! R8    R(5,7)                  1.3569         -DE/DX =   -0.0001              !
 ! R9    R(5,10)                 1.0797         -DE/DX =    0.0                 !
 ! R10   R(6,7)                  1.4216         -DE/DX =    0.0001              !
 ! R11   R(6,11)                 1.0821         -DE/DX =    0.0                 !
 ! R12   R(7,12)                 1.0776         -DE/DX =    0.0                 !
 ! A1    A(3,2,5)              125.3696         -DE/DX =    0.0                 !
 ! A2    A(3,2,8)              114.4029         -DE/DX =    0.0001              !
 ! A3    A(5,2,8)              120.2275         -DE/DX =    0.0                 !
 ! A4    A(1,3,2)              119.9578         -DE/DX =    0.0                 !
 ! A5    A(1,3,4)              126.9319         -DE/DX =    0.0                 !
 ! A6    A(2,3,4)              113.1103         -DE/DX =    0.0                 !
 ! A7    A(3,4,6)              121.5701         -DE/DX =    0.0                 !
 ! A8    A(3,4,9)              116.326          -DE/DX =    0.0001              !
 ! A9    A(6,4,9)              122.1039         -DE/DX =    0.0                 !
 ! A10   A(2,5,7)              120.4248         -DE/DX =    0.0001              !
 ! A11   A(2,5,10)             116.2157         -DE/DX =    0.0                 !
 ! A12   A(7,5,10)             123.3596         -DE/DX =   -0.0001              !
 ! A13   A(4,6,7)              121.5057         -DE/DX =    0.0                 !
 ! A14   A(4,6,11)             119.4905         -DE/DX =    0.0                 !
 ! A15   A(7,6,11)             119.0039         -DE/DX =    0.0                 !
 ! A16   A(5,7,6)              118.0195         -DE/DX =    0.0                 !
 ! A17   A(5,7,12)             120.3537         -DE/DX =    0.0001              !
 ! A18   A(6,7,12)             121.6268         -DE/DX =    0.0                 !
 ! D1    D(5,2,3,1)            180.0            -DE/DX =    0.0                 !
 ! D2    D(5,2,3,4)              0.0            -DE/DX =    0.0                 !
 ! D3    D(8,2,3,1)              0.0            -DE/DX =    0.0                 !
 ! D4    D(8,2,3,4)            180.0            -DE/DX =    0.0                 !
 ! D5    D(3,2,5,7)              0.0            -DE/DX =    0.0                 !
 ! D6    D(3,2,5,10)           180.0            -DE/DX =    0.0                 !
 ! D7    D(8,2,5,7)            180.0            -DE/DX =    0.0                 !
 ! D8    D(8,2,5,10)             0.0            -DE/DX =    0.0                 !
 ! D9    D(1,3,4,6)            180.0            -DE/DX =    0.0                 !
 ! D10   D(1,3,4,9)              0.0            -DE/DX =    0.0                 !
 ! D11   D(2,3,4,6)              0.0            -DE/DX =    0.0                 !
 ! D12   D(2,3,4,9)            180.0            -DE/DX =    0.0                 !
 ! D13   D(3,4,6,7)              0.0            -DE/DX =    0.0                 !
 ! D14   D(3,4,6,11)           180.0            -DE/DX =    0.0                 !
 ! D15   D(9,4,6,7)            180.0            -DE/DX =    0.0                 !
 ! D16   D(9,4,6,11)             0.0            -DE/DX =    0.0                 !
 ! D17   D(2,5,7,6)              0.0            -DE/DX =    0.0                 !
 ! D18   D(2,5,7,12)           180.0            -DE/DX =    0.0                 !
 ! D19   D(10,5,7,6)           180.0            -DE/DX =    0.0                 !
 ! D20   D(10,5,7,12)            0.0            -DE/DX =    0.0                 !
 ! D21   D(4,6,7,5)              0.0            -DE/DX =    0.0                 !
 ! D22   D(4,6,7,12)           180.0            -DE/DX =    0.0                 !
 ! D23   D(11,6,7,5)           180.0            -DE/DX =    0.0                 !
 ! D24   D(11,6,7,12)            0.0            -DE/DX =    0.0                 !
 --------------------------------------------------------------------------------
 GradGradGradGradGradGradGradGradGradGradGradGradGradGradGradGradGradGrad

 1\1\GINC-Q1607\Freq\RB3LYP\Gen\C5H5N1O1\SC51754\26-Aug-2021\0\\#N Geom
 =AllCheck Guess=TCheck SCRF=Check GenChk RB3LYP/ChkBas Freq\\PY_pc-3_B
 3LYP_OPT_FREQ\\0,1\O,2.2821132289,-0.094642975,0.\N,0.2680990065,-1.15
 71682032,0.\C,1.0643517158,0.0018641341,0.\C,0.2889224491,1.2237127627
 ,0.\C,-1.090582141,-1.1780531995,0.\C,-1.0703738822,1.2040064575,0.\C,
 -1.7956372625,-0.0186877572,0.\H,0.7892496626,-2.0208117397,0.\H,0.849
 171549,2.1461286721,0.\H,-1.5525863795,-2.1538859455,0.\H,-1.616687789
 7,2.1381228508,0.\H,-2.873040157,-0.036585057,0.\\Version=EM64L-G09Rev
 E.01\State=1-A'\HF=-323.676183\RMSD=2.622e-09\RMSF=8.047e-05\ZeroPoint
 =0.0935597\Thermal=0.0988078\Dipole=-1.6492998,-0.4936508,0.\DipoleDer
 iv=-1.7995968,0.0268451,0.,0.2080654,-0.4267017,0.,0.,0.,-0.4204387,-0
 .7623328,0.3611635,0.,-0.5309926,-0.3388104,0.,0.,0.,-0.2222389,2.1891
 913,0.0105216,0.,-0.1172857,0.4354768,0.,0.,0.,0.2551108,-0.5918135,-0
 .0406944,0.,0.495713,-0.0517402,0.,0.,0.,-0.1591969,0.4314879,-0.58772
 7,0.,-0.0306966,0.3136247,0.,0.,0.,-0.0140936,0.4625309,0.1559363,0.,0
 .2248452,0.3889745,0.,0.,0.,-0.0695373,-0.1276983,0.1212082,0.,-0.1883
 085,-0.5439524,0.,0.,0.,-0.2026631,0.1412335,-0.0190037,0.,-0.0340931,
 0.2262034,0.,0.,0.,0.2721109,0.0349551,-0.0449942,0.,-0.0334773,-0.001
 3725,0.,0.,0.,0.1421152,0.0334019,-0.0361442,0.,-0.045816,-0.0166185,0
 .,0.,0.,0.1405606,0.0358165,0.0701829,0.,0.0740063,-0.0460149,0.,0.,0.
 ,0.1185752,-0.0471757,-0.0172942,0.,-0.02196,0.0609311,0.,0.,0.,0.1596
 958\Polar=92.9878521,0.5923045,76.5177337,0.,0.,42.3592888\PG=CS [SG(C
 5H5N1O1)]\NImag=0\\0.75007477,-0.04272594,0.09492494,0.,0.,0.03315401,
 -0.07271855,-0.07144315,0.,0.75060441,-0.04381457,0.00940465,0.,-0.115
 73910,0.73088924,0.,0.,0.01932018,0.,0.,0.07610771,-0.61861798,0.05483
 645,0.,-0.13328436,-0.01772362,0.,0.89687031,0.05827760,-0.10640748,0.
 ,0.02930910,-0.20010579,0.,-0.09300493,0.53258698,0.,0.,-0.07325912,0.
 ,0.,-0.06040986,0.,0.,0.19874116,-0.05728922,0.05013096,0.,0.04719412,
 -0.00570237,0.,-0.12542694,0.02512631,0.,0.76353305,0.02834779,0.00567
 003,0.,-0.01208963,-0.04510072,0.,0.04851488,-0.21035979,0.,0.07603962
 ,0.64790170,0.,0.,0.02195954,0.,0.,0.00512058,0.,0.,-0.07823121,0.,0.,
 0.11843371,-0.00373417,0.01571216,0.,-0.32179831,0.02160079,0.,-0.0241
 2427,-0.07951656,0.,-0.03456519,0.01862411,0.,0.66488902,-0.00191154,-
 0.00979085,0.,-0.02907100,-0.14867558,0.,-0.02545337,0.03379385,0.,0.0
 2082337,-0.01244208,0.,-0.01561990,0.82215604,0.,0.,0.00486741,0.,0.,-
 0.04537261,0.,0.,-0.00283991,0.,0.,0.00071376,0.,0.,0.13895027,0.01261
 905,-0.00594985,0.,-0.03647488,-0.00475308,0.,-0.02866852,0.04729162,0
 .,-0.42213804,-0.02315152,0.,0.05145090,-0.01785097,0.,0.73761623,0.00
 882494,-0.01358937,0.,-0.03349262,-0.00673990,0.,0.03054939,0.04053057
 ,0.,0.01918576,-0.13391839,0.,0.01984859,-0.06162013,0.,-0.04782322,0.
 67139911,0.,0.,0.00402017,0.,0.,-0.00485779,0.,0.,0.00040717,0.,0.,-0.
 05722879,0.,0.,0.00798451,0.,0.,0.14411900,-0.00467446,-0.00328700,0.,
 -0.04938142,0.03637113,0.,0.00542360,0.01149542,0.,-0.02521093,-0.0345
 0976,0.,-0.19574547,0.14440568,0.,-0.16302875,-0.09212244,0.,0.7634169
 2,-0.00904596,0.01110259,0.,0.06685718,0.01275252,0.,0.00086418,-0.050
 42797,0.,-0.05604188,0.02169040,0.,0.10115171,-0.33830545,0.,-0.041883
 51,-0.23657518,0.,-0.05636522,0.66527773,0.,0.,-0.00022110,0.,0.,0.012
 46161,0.,0.,-0.00739956,0.,0.,0.00808694,0.,0.,-0.06471947,0.,0.,-0.06
 226433,0.,0.,0.11653613,-0.00213332,0.00437685,0.,-0.16443850,0.158898
 53,0.,0.02072186,-0.01691981,0.,-0.00309569,-0.00309116,0.,-0.01389730
 ,0.03220789,0.,0.00061020,0.00002641,0.,-0.00538867,-0.00412869,0.,0.1
 6650389,0.00052946,0.00522757,0.,0.16026926,-0.34774382,0.,0.02030094,
 -0.02376779,0.,-0.00369548,-0.00406021,0.,-0.00114050,0.00790244,0.,-0
 .00259062,-0.00122861,0.,-0.00271908,0.00437504,0.,-0.17125879,0.35899
 400,0.,0.,-0.00457096,0.,0.,-0.01680670,0.,0.,0.00325891,0.,0.,0.00446
 997,0.,0.,-0.00521905,0.,0.,-0.00066818,0.,0.,0.00501466,0.,0.,0.01655
 255,0.00079468,-0.00177430,0.,-0.00124371,0.00398220,0.,0.01138526,0.0
 1484828,0.,-0.13104106,-0.12587835,0.,-0.00116322,0.00058795,0.,-0.011
 85328,-0.02827090,0.,-0.00467578,0.00177772,0.,0.00065058,0.00094180,0
 .,0.13634094,0.00113665,0.00297291,0.,0.00284856,-0.00489509,0.,-0.018
 70656,-0.01772566,0.,-0.12405925,-0.26927699,0.,0.00231326,-0.00005602
 ,0.,0.00198663,0.00511354,0.,0.00077101,0.00242376,0.,-0.00094097,-0.0
 0102480,0.,0.13500149,0.28144496,0.,0.,-0.00218132,0.,0.,0.00478499,0.
 ,0.,0.00286412,0.,0.,-0.03442674,0.,0.,-0.00072784,0.,0.,0.00342387,0.
 ,0.,0.00924484,0.,0.,-0.00050055,0.,0.,0.02417450,-0.00282966,-0.00179
 658,0.,-0.01960552,-0.03637542,0.,-0.00061901,0.00675759,0.,0.00005796
 ,-0.00018082,0.,-0.10775935,-0.10174773,0.,-0.00179290,0.00283333,0.,0
 .01319959,0.01465942,0.,0.00084238,-0.00029364,0.,0.00010951,-0.000128
 68,0.,0.11727812,-0.00015157,-0.00020589,0.,0.00076058,0.00424842,0.,0
 .00163222,0.00236801,0.,0.00063022,0.00054302,0.,-0.10800381,-0.294340
 61,0.,0.00422678,-0.00314814,0.,-0.01390307,-0.01613090,0.,-0.00045049
 ,0.00099796,0.,-0.00010575,-0.00000567,0.,0.11594073,0.30578026,0.,0.,
 -0.00015150,0.,0.,0.00284567,0.,0.,0.00504327,0.,0.,-0.00005910,0.,0.,
 -0.03762495,0.,0.,0.00794715,0.,0.,0.00693025,0.,0.,-0.00260080,0.,0.,
 -0.00121325,0.,0.,0.02428461,-0.00142962,0.00183412,0.,-0.00026647,0.0
 0027249,0.,-0.00424187,-0.00334561,0.,-0.01261302,0.02991241,0.,-0.001
 19618,-0.00343003,0.,-0.12878401,0.11832770,0.,0.01205739,-0.01466000,
 0.,0.00002119,0.00003452,0.,0.00119463,-0.00043881,0.,0.00053781,-0.00
 078208,0.,0.13406846,0.00056191,-0.00004757,0.,-0.00059370,0.00102182,
 0.,-0.00172824,0.00146070,0.,-0.00086633,0.00415968,0.,-0.00404148,-0.
 00392235,0.,0.11890940,-0.26491047,0.,0.01539782,-0.01801950,0.,0.0000
 4292,0.00003865,0.,0.00016642,0.00088269,0.,0.00083624,-0.00095788,0.,
 -0.12851337,0.27922716,0.,0.,-0.00245810,0.,0.,-0.00075482,0.,0.,0.012
 12929,0.,0.,0.00747790,0.,0.,0.00454038,0.,0.,-0.04301948,0.,0.,0.0045
 9811,0.,0.,-0.00070744,0.,0.,-0.00602499,0.,0.,-0.00040261,0.,0.,0.026
 84967,-0.00006152,0.00008628,0.,0.00141320,0.00298302,0.,0.00058191,-0
 .00031902,0.,0.00059495,-0.00253757,0.,-0.01235646,-0.00294033,0.,-0.0
 0955599,0.00211307,0.,-0.34599202,-0.00318496,0.,-0.00039662,-0.000377
 85,0.,-0.00049857,0.00021668,0.,0.00058107,0.00020623,0.,0.00065168,-0
 .00017160,0.,0.36503836,-0.00002877,0.00073847,0.,0.00238452,-0.005055
 73,0.,-0.00008134,-0.00194562,0.,-0.00157092,-0.00480663,0.,0.02907161
 ,0.00530074,0.,-0.02841165,0.00468697,0.,-0.00553448,-0.05816303,0.,0.
 00123732,0.00028957,0.,-0.00127654,0.00014636,0.,-0.00050444,0.0008514
 2,0.,0.00078866,0.00106709,0.,0.00392605,0.05689039,0.,0.,-0.00047920,
 0.,0.,0.00756105,0.,0.,-0.00030427,0.,0.,0.00368344,0.,0.,-0.00055250,
 0.,0.,0.00013670,0.,0.,-0.02826807,0.,0.,0.00177761,0.,0.,0.00058236,0
 .,0.,-0.00499876,0.,0.,-0.00222791,0.,0.,0.02308955\\0.00021872,-0.000
 04209,0.,0.00002416,0.00009632,0.,-0.00027083,0.00003738,0.,-0.0000320
 2,-0.00005713,0.,-0.00011369,-0.00012011,0.,-0.00006362,-0.00005851,0.
 ,0.00005678,0.00020890,0.,0.00003572,0.00001352,0.,0.00005777,-0.00000
 171,0.,0.00006845,-0.00001406,0.,0.00001734,-0.00000936,0.,0.00000122,
 -0.00005315,0.\\\@


 I take a simple view of life: keep your eyes open and get on with it.
 -- Laurence Olivier
 Job cpu time:       0 days  9 hours 28 minutes 29.8 seconds.
 File lengths (MBytes):  RWF=    316 Int=      0 D2E=      0 Chk=     28 Scr=      1
 Normal termination of Gaussian 09 at Thu Aug 26 16:56:47 2021.
