 Entering Gaussian System, Link 0=g09
 AtFile(1): pc-1.gbs
            -H     0
            S    3   1.00
                  0.122520D+02           0.228220D-01
                  0.186870D+01           0.155640D+00
                  0.418210D+00           0.488980D+00
            S    1   1.00
                  0.106100D+00           0.100000D+01
            P    1   1.00
                  0.100000D+01           0.100000D+01
            ****
            -C     0
            S    5   1.00
                  0.125260D+04           0.557360D-02
                  0.188570D+03           0.414960D-01
                  0.428390D+02           0.182630D+00
                  0.118180D+02           0.461290D+00
                  0.355670D+01           0.449310D+00
            S    5   1.00
                  0.188570D+03          -0.274400D-03
                  0.428390D+02          -0.255830D-02
                  0.118180D+02          -0.333750D-01
                  0.355670D+01          -0.873050D-01
                  0.542580D+00           0.534150D+00
            S    1   1.00
                  0.160580D+00           0.100000D+01
            P    3   1.00
                  0.914260D+01           0.444990D-01
                  0.192980D+01           0.231080D+00
                  0.525220D+00           0.512270D+00
            P    1   1.00
                  0.136080D+00           0.100000D+01
            D    1   1.00
                  0.800000D+00           0.100000D+01
            ****
            -N     0
            S    5   1.00
                  0.174220D+04           0.546030D-02
                  0.262210D+03           0.407060D-01
                  0.595850D+02           0.180380D+00
                  0.164890D+02           0.460090D+00
                  0.499450D+01           0.451730D+00
            S    5   1.00
                  0.262210D+03          -0.301040D-03
                  0.595850D+02          -0.255110D-02
                  0.164890D+02          -0.349000D-01
                  0.499450D+01          -0.874290D-01
                  0.786730D+00           0.526600D+00
            S    1   1.00
                  0.228370D+00           0.100000D+01
            P    3   1.00
                  0.131320D+02           0.455150D-01
                  0.281080D+01           0.237400D+00
                  0.763510D+00           0.513920D+00
            P    1   1.00
                  0.195600D+00           0.100000D+01
            D    1   1.00
                  0.900000D+00           0.100000D+01
            ****
            -O     0
            S    5   1.00
                  0.230670D+04           0.539400D-02
                  0.347150D+03           0.402480D-01
                  0.788900D+02           0.179210D+00
                  0.218760D+02           0.459780D+00
                  0.666460D+01           0.452340D+00
            S    5   1.00
                  0.347150D+03          -0.316920D-03
                  0.788900D+02          -0.259440D-02
                  0.218760D+02          -0.362410D-01
                  0.666460D+01          -0.877900D-01
                  0.106690D+01           0.533200D+00
            S    1   1.00
                  0.307000D+00           0.100000D+01
            P    3   1.00
                  0.170220D+02           0.489190D-01
                  0.368380D+01           0.249620D+00
                  0.992340D+00           0.513470D+00
            P    1   1.00
                  0.244870D+00           0.100000D+01
            D    1   1.00
                  0.100000D+01           0.100000D+01
            ****
 Initial command:
 /public3/home/sc51754/softwares/g09e01/l1.exe "./Gau-40018.inp" -scrdir="./"
 Entering Link 1 = /public3/home/sc51754/softwares/g09e01/l1.exe PID=     40019.
  
 Copyright (c) 1988,1990,1992,1993,1995,1998,2003,2009,2015,
            Gaussian, Inc.  All Rights Reserved.
  
 This is part of the Gaussian(R) 09 program.  It is based on
 the Gaussian(R) 03 system (copyright 2003, Gaussian, Inc.),
 the Gaussian(R) 98 system (copyright 1998, Gaussian, Inc.),
 the Gaussian(R) 94 system (copyright 1995, Gaussian, Inc.),
 the Gaussian 92(TM) system (copyright 1992, Gaussian, Inc.),
 the Gaussian 90(TM) system (copyright 1990, Gaussian, Inc.),
 the Gaussian 88(TM) system (copyright 1988, Gaussian, Inc.),
 the Gaussian 86(TM) system (copyright 1986, Carnegie Mellon
 University), and the Gaussian 82(TM) system (copyright 1983,
 Carnegie Mellon University). Gaussian is a federally registered
 trademark of Gaussian, Inc.
  
 This software contains proprietary and confidential information,
 including trade secrets, belonging to Gaussian, Inc.
  
 This software is provided under written license and may be
 used, copied, transmitted, or stored only in accord with that
 written license.
  
 The following legend is applicable only to US Government
 contracts under FAR:
  
                    RESTRICTED RIGHTS LEGEND
  
 Use, reproduction and disclosure by the US Government is
 subject to restrictions as set forth in subparagraphs (a)
 and (c) of the Commercial Computer Software - Restricted
 Rights clause in FAR 52.227-19.
  
 Gaussian, Inc.
 340 Quinnipiac St., Bldg. 40, Wallingford CT 06492
  
  
 ---------------------------------------------------------------
 Warning -- This program may not be used in any manner that
 competes with the business of Gaussian, Inc. or will provide
 assistance to any competitor of Gaussian, Inc.  The licensee
 of this program is prohibited from giving any competitor of
 Gaussian, Inc. access to this program.  By using this program,
 the user acknowledges that Gaussian, Inc. is engaged in the
 business of creating and licensing software in the field of
 computational chemistry and represents and warrants to the
 licensee that it is not a competitor of Gaussian, Inc. and that
 it will not use this program in any manner prohibited above.
 ---------------------------------------------------------------
  

 Cite this work as:
 Gaussian 09, Revision E.01,
 M. J. Frisch, G. W. Trucks, H. B. Schlegel, G. E. Scuseria, 
 M. A. Robb, J. R. Cheeseman, G. Scalmani, V. Barone, B. Mennucci, 
 G. A. Petersson, H. Nakatsuji, M. Caricato, X. Li, H. P. Hratchian, 
 A. F. Izmaylov, J. Bloino, G. Zheng, J. L. Sonnenberg, M. Hada, 
 M. Ehara, K. Toyota, R. Fukuda, J. Hasegawa, M. Ishida, T. Nakajima, 
 Y. Honda, O. Kitao, H. Nakai, T. Vreven, J. A. Montgomery, Jr., 
 J. E. Peralta, F. Ogliaro, M. Bearpark, J. J. Heyd, E. Brothers, 
 K. N. Kudin, V. N. Staroverov, T. Keith, R. Kobayashi, J. Normand, 
 K. Raghavachari, A. Rendell, J. C. Burant, S. S. Iyengar, J. Tomasi, 
 M. Cossi, N. Rega, J. M. Millam, M. Klene, J. E. Knox, J. B. Cross, 
 V. Bakken, C. Adamo, J. Jaramillo, R. Gomperts, R. E. Stratmann, 
 O. Yazyev, A. J. Austin, R. Cammi, C. Pomelli, J. W. Ochterski, 
 R. L. Martin, K. Morokuma, V. G. Zakrzewski, G. A. Voth, 
 P. Salvador, J. J. Dannenberg, S. Dapprich, A. D. Daniels, 
 O. Farkas, J. B. Foresman, J. V. Ortiz, J. Cioslowski, 
 and D. J. Fox, Gaussian, Inc., Wallingford CT, 2013.
 
 ******************************************
 Gaussian 09:  EM64L-G09RevE.01 30-Nov-2015
                26-Aug-2021 
 ******************************************
 %nprocshared=64
 Will use up to   64 processors via shared memory.
 %mem=128GB
 %chk=PY_pc-1_B3LYP_OPT_FREQ.chk
 --------------------
 # opt freq b3lyp/gen
 --------------------
 1/14=-1,18=20,19=15,26=3,38=1/1,3;
 2/9=110,12=2,17=6,18=5,40=1/2;
 3/5=7,11=2,16=1,25=1,30=1,71=1,74=-5/1,2,3;
 4//1;
 5/5=2,38=5/2;
 6/7=2,8=2,9=2,10=2,28=1/1;
 7//1,2,3,16;
 1/14=-1,18=20,19=15,26=3/3(2);
 2/9=110/2;
 99//99;
 2/9=110/2;
 3/5=7,6=1,11=2,16=1,25=1,30=1,71=1,74=-5,82=7/1,2,3;
 4/5=5,16=3,69=1/1;
 5/5=2,38=5/2;
 7//1,2,3,16;
 1/14=-1,18=20,19=15,26=3/3(-5);
 2/9=110/2;
 6/7=2,8=2,9=2,10=2,19=2,28=1/1;
 99/9=1/99;
 ----------------------
 PY_pc-1_B3LYP_OPT_FREQ
 ----------------------
 Symbolic Z-matrix:
 Charge =  0 Multiplicity = 1
 O                     2.282    -0.023     0. 
 N                     0.285    -1.189     0. 
 C                     1.054    -0.034     0. 
 C                     0.288     1.248     0. 
 C                    -1.088    -1.185     0. 
 C                    -1.052     1.217     0. 
 C                    -1.77     -0.034     0. 
 H                     0.753    -2.09      0. 
 H                     0.841     2.179     0. 
 H                    -1.569    -2.154     0. 
 H                    -1.628     2.135     0. 
 H                    -2.853    -0.016     0. 
 

 GradGradGradGradGradGradGradGradGradGradGradGradGradGradGradGradGradGrad
 Berny optimization.
 Initialization pass.
                           ----------------------------
                           !    Initial Parameters    !
                           ! (Angstroms and Degrees)  !
 --------------------------                            --------------------------
 ! Name  Definition              Value          Derivative Info.                !
 --------------------------------------------------------------------------------
 ! R1    R(1,3)                  1.228          estimate D2E/DX2                !
 ! R2    R(2,3)                  1.3876         estimate D2E/DX2                !
 ! R3    R(2,5)                  1.373          estimate D2E/DX2                !
 ! R4    R(2,8)                  1.0153         estimate D2E/DX2                !
 ! R5    R(3,4)                  1.4934         estimate D2E/DX2                !
 ! R6    R(4,6)                  1.3404         estimate D2E/DX2                !
 ! R7    R(4,9)                  1.0829         estimate D2E/DX2                !
 ! R8    R(5,7)                  1.3379         estimate D2E/DX2                !
 ! R9    R(5,10)                 1.0818         estimate D2E/DX2                !
 ! R10   R(6,7)                  1.4424         estimate D2E/DX2                !
 ! R11   R(6,11)                 1.0837         estimate D2E/DX2                !
 ! R12   R(7,12)                 1.0831         estimate D2E/DX2                !
 ! A1    A(3,2,5)              123.4888         estimate D2E/DX2                !
 ! A2    A(3,2,8)              118.8959         estimate D2E/DX2                !
 ! A3    A(5,2,8)              117.6153         estimate D2E/DX2                !
 ! A4    A(1,3,2)              124.1689         estimate D2E/DX2                !
 ! A5    A(1,3,4)              120.3453         estimate D2E/DX2                !
 ! A6    A(2,3,4)              115.4858         estimate D2E/DX2                !
 ! A7    A(3,4,6)              119.5332         estimate D2E/DX2                !
 ! A8    A(3,4,9)              118.4318         estimate D2E/DX2                !
 ! A9    A(6,4,9)              122.0349         estimate D2E/DX2                !
 ! A10   A(2,5,7)              120.8149         estimate D2E/DX2                !
 ! A11   A(2,5,10)             116.2323         estimate D2E/DX2                !
 ! A12   A(7,5,10)             122.9528         estimate D2E/DX2                !
 ! A13   A(4,6,7)              121.1785         estimate D2E/DX2                !
 ! A14   A(4,6,11)             120.781          estimate D2E/DX2                !
 ! A15   A(7,6,11)             118.0405         estimate D2E/DX2                !
 ! A16   A(5,7,6)              119.4988         estimate D2E/DX2                !
 ! A17   A(5,7,12)             121.6001         estimate D2E/DX2                !
 ! A18   A(6,7,12)             118.9011         estimate D2E/DX2                !
 ! D1    D(5,2,3,1)            180.0            estimate D2E/DX2                !
 ! D2    D(5,2,3,4)              0.0            estimate D2E/DX2                !
 ! D3    D(8,2,3,1)              0.0            estimate D2E/DX2                !
 ! D4    D(8,2,3,4)            180.0            estimate D2E/DX2                !
 ! D5    D(3,2,5,7)              0.0            estimate D2E/DX2                !
 ! D6    D(3,2,5,10)           180.0            estimate D2E/DX2                !
 ! D7    D(8,2,5,7)            180.0            estimate D2E/DX2                !
 ! D8    D(8,2,5,10)             0.0            estimate D2E/DX2                !
 ! D9    D(1,3,4,6)            180.0            estimate D2E/DX2                !
 ! D10   D(1,3,4,9)              0.0            estimate D2E/DX2                !
 ! D11   D(2,3,4,6)              0.0            estimate D2E/DX2                !
 ! D12   D(2,3,4,9)            180.0            estimate D2E/DX2                !
 ! D13   D(3,4,6,7)              0.0            estimate D2E/DX2                !
 ! D14   D(3,4,6,11)           180.0            estimate D2E/DX2                !
 ! D15   D(9,4,6,7)            180.0            estimate D2E/DX2                !
 ! D16   D(9,4,6,11)             0.0            estimate D2E/DX2                !
 ! D17   D(2,5,7,6)              0.0            estimate D2E/DX2                !
 ! D18   D(2,5,7,12)           180.0            estimate D2E/DX2                !
 ! D19   D(10,5,7,6)           180.0            estimate D2E/DX2                !
 ! D20   D(10,5,7,12)            0.0            estimate D2E/DX2                !
 ! D21   D(4,6,7,5)              0.0            estimate D2E/DX2                !
 ! D22   D(4,6,7,12)           180.0            estimate D2E/DX2                !
 ! D23   D(11,6,7,5)           180.0            estimate D2E/DX2                !
 ! D24   D(11,6,7,12)            0.0            estimate D2E/DX2                !
 --------------------------------------------------------------------------------
 Trust Radius=3.00D-01 FncErr=1.00D-07 GrdErr=1.00D-06
 Number of steps in this run=     64 maximum allowed number of steps=    100.
 GradGradGradGradGradGradGradGradGradGradGradGradGradGradGradGradGradGrad

                          Input orientation:                          
 ---------------------------------------------------------------------
 Center     Atomic      Atomic             Coordinates (Angstroms)
 Number     Number       Type             X           Y           Z
 ---------------------------------------------------------------------
      1          8           0        2.282000   -0.023000    0.000000
      2          7           0        0.285000   -1.189000    0.000000
      3          6           0        1.054000   -0.034000    0.000000
      4          6           0        0.288000    1.248000    0.000000
      5          6           0       -1.088000   -1.185000    0.000000
      6          6           0       -1.052000    1.217000    0.000000
      7          6           0       -1.770000   -0.034000    0.000000
      8          1           0        0.753000   -2.090000    0.000000
      9          1           0        0.841000    2.179000    0.000000
     10          1           0       -1.569000   -2.154000    0.000000
     11          1           0       -1.628000    2.135000    0.000000
     12          1           0       -2.853000   -0.016000    0.000000
 ---------------------------------------------------------------------
                    Distance matrix (angstroms):
                    1          2          3          4          5
     1  O    0.000000
     2  N    2.312480   0.000000
     3  C    1.228049   1.387583   0.000000
     4  C    2.364630   2.437002   1.493412   0.000000
     5  C    3.564708   1.373006   2.431659   2.795150   0.000000
     6  C    3.557127   2.752527   2.449538   1.340359   2.402270
     7  C    4.052015   2.357340   2.824000   2.424642   1.337881
     8  H    2.571056   1.015296   2.077917   3.370233   2.051416
     9  H    2.631594   3.413585   2.223227   1.082853   3.877826
    10  H    4.401291   2.090105   3.372615   3.875829   1.081814
    11  H    4.465990   3.835172   3.449302   2.111356   3.363629
    12  H    5.135005   3.350071   3.907041   3.385790   2.117023
                    6          7          8          9         10
     6  C    0.000000
     7  C    1.442403   0.000000
     8  H    3.767529   3.254637   0.000000
     9  H    2.123415   3.422673   4.269907   0.000000
    10  H    3.410415   2.129507   2.322882   4.958124   0.000000
    11  H    1.083744   2.173643   4.849720   2.469392   4.289406
    12  H    2.182634   1.083150   4.159893   4.296936   2.493933
                   11         12
    11  H    0.000000
    12  H    2.475364   0.000000
 Stoichiometry    C5H5NO
 Framework group  CS[SG(C5H5NO)]
 Deg. of freedom    21
 Full point group                 CS      NOp   2
 Largest Abelian subgroup         CS      NOp   2
 Largest concise Abelian subgroup C1      NOp   1
                         Standard orientation:                         
 ---------------------------------------------------------------------
 Center     Atomic      Atomic             Coordinates (Angstroms)
 Number     Number       Type             X           Y           Z
 ---------------------------------------------------------------------
      1          8           0        0.023182    2.274142    0.000000
      2          7           0       -1.162572    0.288808    0.000000
      3          6           0        0.000000    1.046311    0.000000
      4          6           0        1.274338    0.267631    0.000000
      5          6           0       -1.172193   -1.084165    0.000000
      6          6           0        1.230046   -1.071996    0.000000
      7          6           0       -0.028016   -1.777550    0.000000
      8          1           0       -2.058885    0.765723    0.000000
      9          1           0        2.210778    0.811368    0.000000
     10          1           0       -2.145917   -1.555528    0.000000
     11          1           0        2.142286   -1.657074    0.000000
     12          1           0       -0.020761   -2.860675    0.000000
 ---------------------------------------------------------------------
 Rotational constants (GHZ):      5.5208968      2.8360543      1.8735976
 General basis read from cards:  (5D, 7F)
 There are    97 symmetry adapted cartesian basis functions of A'  symmetry.
 There are    33 symmetry adapted cartesian basis functions of A"  symmetry.
 There are    90 symmetry adapted basis functions of A'  symmetry.
 There are    33 symmetry adapted basis functions of A"  symmetry.
   123 basis functions,   238 primitive gaussians,   130 cartesian basis functions
    25 alpha electrons       25 beta electrons
       nuclear repulsion energy       275.0774566563 Hartrees.
 NAtoms=   12 NActive=   12 NUniq=   12 SFac= 1.00D+00 NAtFMM=   60 NAOKFM=F Big=F
 Integral buffers will be    131072 words long.
 Raffenetti 2 integral format.
 Two-electron integral symmetry is turned on.
 One-electron integrals computed using PRISM.
 NBasis=   123 RedAO= T EigKep=  1.61D-03  NBF=    90    33
 NBsUse=   123 1.00D-06 EigRej= -1.00D+00 NBFU=    90    33
 ExpMin= 1.06D-01 ExpMax= 2.31D+03 ExpMxC= 3.47D+02 IAcc=1 IRadAn=         1 AccDes= 0.00D+00
 Harris functional with IExCor=  402 and IRadAn=       1 diagonalized for initial guess.
 HarFok:  IExCor=  402 AccDes= 0.00D+00 IRadAn=         1 IDoV= 1 UseB2=F ITyADJ=14
 ICtDFT=  3500011 ScaDFX=  1.000000  1.000000  1.000000  1.000000
 FoFCou: FMM=F IPFlag=           0 FMFlag=      100000 FMFlg1=           0
         NFxFlg=           0 DoJE=T BraDBF=F KetDBF=T FulRan=T
         wScrn=  0.000000 ICntrl=     500 IOpCl=  0 I1Cent=   200000004 NGrid=           0
         NMat0=    1 NMatS0=      1 NMatT0=    0 NMatD0=    1 NMtDS0=    0 NMtDT0=    0
 Petite list used in FoFCou.
 Initial guess orbital symmetries:
       Occupied  (A') (A') (A') (A') (A') (A') (A') (A') (A') (A')
                 (A') (A') (A') (A') (A') (A') (A') (A') (A") (A')
                 (A') (A") (A") (A') (A")
       Virtual   (A") (A") (A') (A") (A') (A') (A') (A') (A') (A')
                 (A') (A') (A') (A') (A') (A") (A') (A') (A') (A")
                 (A') (A") (A') (A') (A") (A') (A") (A') (A') (A')
                 (A') (A') (A") (A') (A') (A') (A") (A') (A') (A')
                 (A') (A') (A') (A") (A') (A") (A') (A") (A") (A")
                 (A') (A") (A') (A') (A') (A') (A') (A') (A") (A')
                 (A") (A') (A") (A') (A') (A') (A") (A') (A") (A')
                 (A") (A') (A') (A') (A") (A') (A') (A") (A') (A")
                 (A') (A") (A') (A") (A") (A') (A') (A") (A') (A')
                 (A') (A') (A') (A') (A') (A') (A') (A')
 The electronic state of the initial guess is 1-A'.
 Keep R1 ints in memory in symmetry-blocked form, NReq=44430771.
 Requested convergence on RMS density matrix=1.00D-08 within 128 cycles.
 Requested convergence on MAX density matrix=1.00D-06.
 Requested convergence on             energy=1.00D-06.
 No special actions if energy rises.
 Integral accuracy reduced to 1.0D-05 until final iterations.
 Initial convergence to 1.0D-05 achieved.  Increase integral accuracy.
 SCF Done:  E(RB3LYP) =  -323.468199282     A.U. after   15 cycles
            NFock= 15  Conv=0.85D-08     -V/T= 2.0043

 **********************************************************************

            Population analysis using the SCF density.

 **********************************************************************

 Orbital symmetries:
       Occupied  (A') (A') (A') (A') (A') (A') (A') (A') (A') (A')
                 (A') (A') (A') (A') (A') (A') (A') (A") (A') (A')
                 (A') (A") (A") (A') (A")
       Virtual   (A") (A") (A') (A') (A') (A') (A') (A") (A') (A')
                 (A') (A') (A') (A') (A") (A') (A') (A') (A") (A')
                 (A") (A') (A') (A") (A') (A") (A') (A') (A') (A')
                 (A') (A') (A") (A') (A') (A') (A') (A") (A') (A')
                 (A') (A') (A') (A') (A") (A') (A") (A") (A") (A")
                 (A') (A") (A') (A') (A') (A') (A') (A') (A") (A')
                 (A") (A") (A') (A') (A') (A') (A") (A") (A') (A")
                 (A') (A') (A') (A') (A') (A") (A') (A") (A') (A")
                 (A') (A") (A') (A") (A") (A') (A') (A") (A') (A')
                 (A') (A') (A') (A') (A') (A') (A') (A')
 The electronic state is 1-A'.
 Alpha  occ. eigenvalues --  -19.08262 -14.38392 -10.28519 -10.24514 -10.20489
 Alpha  occ. eigenvalues --  -10.19264 -10.19083  -1.04299  -0.97170  -0.83301
 Alpha  occ. eigenvalues --   -0.77052  -0.65874  -0.65454  -0.56982  -0.51808
 Alpha  occ. eigenvalues --   -0.49925  -0.47481  -0.45003  -0.43393  -0.39725
 Alpha  occ. eigenvalues --   -0.38581  -0.35268  -0.32048  -0.25784  -0.23270
 Alpha virt. eigenvalues --   -0.04929   0.00117   0.02109   0.05643   0.07577
 Alpha virt. eigenvalues --    0.10251   0.11824   0.12240   0.18738   0.20843
 Alpha virt. eigenvalues --    0.25613   0.26719   0.29231   0.35434   0.38717
 Alpha virt. eigenvalues --    0.39506   0.41199   0.44628   0.45329   0.46417
 Alpha virt. eigenvalues --    0.47410   0.47737   0.52208   0.52467   0.52624
 Alpha virt. eigenvalues --    0.55491   0.58273   0.59429   0.60250   0.64007
 Alpha virt. eigenvalues --    0.66245   0.69361   0.75350   0.77600   0.85543
 Alpha virt. eigenvalues --    0.90344   0.92376   0.96078   0.97089   0.99400
 Alpha virt. eigenvalues --    1.02264   1.05463   1.07597   1.23172   1.23563
 Alpha virt. eigenvalues --    1.24744   1.26943   1.34701   1.37725   1.38553
 Alpha virt. eigenvalues --    1.41253   1.44546   1.60485   1.63468   1.73982
 Alpha virt. eigenvalues --    1.77834   1.80888   1.81939   1.84914   1.86674
 Alpha virt. eigenvalues --    1.86714   1.90437   1.91071   1.94347   1.98315
 Alpha virt. eigenvalues --    2.07386   2.12376   2.18415   2.18735   2.22723
 Alpha virt. eigenvalues --    2.23924   2.24498   2.25447   2.27335   2.30168
 Alpha virt. eigenvalues --    2.31090   2.35746   2.36214   2.40335   2.40665
 Alpha virt. eigenvalues --    2.50387   2.52028   2.55126   2.61666   2.67466
 Alpha virt. eigenvalues --    2.73771   2.77589   2.89220   3.01796   3.03605
 Alpha virt. eigenvalues --    3.05215   3.07338   3.10219   3.18768   3.30855
 Alpha virt. eigenvalues --    3.38861   3.39972   3.82030
          Condensed to atoms (all electrons):
               1          2          3          4          5          6
     1  O    7.895439  -0.085934   0.686883  -0.091953   0.001505   0.007494
     2  N   -0.085934   6.702768   0.289050  -0.085533   0.373532  -0.011177
     3  C    0.686883   0.289050   4.378181   0.367210  -0.044981  -0.070765
     4  C   -0.091953  -0.085533   0.367210   5.232993  -0.060114   0.426133
     5  C    0.001505   0.373532  -0.044981  -0.060114   4.690917  -0.088439
     6  C    0.007494  -0.011177  -0.070765   0.426133  -0.088439   4.954729
     7  C    0.000392  -0.063858  -0.031850  -0.043915   0.554097   0.413202
     8  H    0.007511   0.356572  -0.009104   0.014424  -0.027132  -0.003700
     9  H    0.000394   0.004552  -0.030448   0.415945  -0.000016  -0.039491
    10  H   -0.000378  -0.040609   0.001394  -0.003521   0.409676   0.010467
    11  H   -0.000254  -0.001037   0.006882  -0.035859   0.011243   0.409588
    12  H    0.000006   0.005494   0.000125   0.010346  -0.042731  -0.035276
               7          8          9         10         11         12
     1  O    0.000392   0.007511   0.000394  -0.000378  -0.000254   0.000006
     2  N   -0.063858   0.356572   0.004552  -0.040609  -0.001037   0.005494
     3  C   -0.031850  -0.009104  -0.030448   0.001394   0.006882   0.000125
     4  C   -0.043915   0.014424   0.415945  -0.003521  -0.035859   0.010346
     5  C    0.554097  -0.027132  -0.000016   0.409676   0.011243  -0.042731
     6  C    0.413202  -0.003700  -0.039491   0.010467   0.409588  -0.035276
     7  C    4.997113   0.010063   0.008256  -0.037205  -0.045853   0.417477
     8  H    0.010063   0.484587  -0.000169  -0.014519   0.000157  -0.000133
     9  H    0.008256  -0.000169   0.578060   0.000101  -0.014363  -0.000146
    10  H   -0.037205  -0.014519   0.000101   0.594319  -0.000219  -0.011792
    11  H   -0.045853   0.000157  -0.014363  -0.000219   0.618353  -0.014340
    12  H    0.417477  -0.000133  -0.000146  -0.011792  -0.014340   0.605822
 Mulliken charges:
               1
     1  O   -0.421106
     2  N   -0.443821
     3  C    0.457424
     4  C   -0.146155
     5  C    0.222442
     6  C    0.027234
     7  C   -0.177919
     8  H    0.181443
     9  H    0.077325
    10  H    0.092285
    11  H    0.065702
    12  H    0.065147
 Sum of Mulliken charges =   0.00000
 Mulliken charges with hydrogens summed into heavy atoms:
               1
     1  O   -0.421106
     2  N   -0.262378
     3  C    0.457424
     4  C   -0.068830
     5  C    0.314726
     6  C    0.092936
     7  C   -0.112772
 Electronic spatial extent (au):  <R**2>=            631.5848
 Charge=             -0.0000 electrons
 Dipole moment (field-independent basis, Debye):
    X=             -1.5520    Y=             -3.9917    Z=              0.0000  Tot=              4.2828
 Quadrupole moment (field-independent basis, Debye-Ang):
   XX=            -31.5050   YY=            -47.7242   ZZ=            -43.4888
   XY=             -0.7761   XZ=              0.0000   YZ=              0.0000
 Traceless Quadrupole moment (field-independent basis, Debye-Ang):
   XX=              9.4010   YY=             -6.8182   ZZ=             -2.5828
   XY=             -0.7761   XZ=              0.0000   YZ=              0.0000
 Octapole moment (field-independent basis, Debye-Ang**2):
  XXX=            -12.2622  YYY=            -27.7365  ZZZ=              0.0000  XYY=             -1.8380
  XXY=              2.2977  XXZ=              0.0000  XZZ=             -1.9079  YZZ=              5.9241
  YYZ=              0.0000  XYZ=              0.0000
 Hexadecapole moment (field-independent basis, Debye-Ang**3):
 XXXX=           -242.6660 YYYY=           -531.5984 ZZZZ=            -47.2437 XXXY=             -3.7654
 XXXZ=              0.0000 YYYX=             -3.7064 YYYZ=             -0.0000 ZZZX=              0.0000
 ZZZY=             -0.0000 XXYY=           -117.0758 XXZZ=            -62.2820 YYZZ=            -94.6729
 XXYZ=              0.0000 YYXZ=              0.0000 ZZXY=             -0.8550
 N-N= 2.750774566563D+02 E-N=-1.304462371963D+03  KE= 3.220819986971D+02
 Symmetry A'   KE= 3.105270825337D+02
 Symmetry A"   KE= 1.155491616335D+01
 Calling FoFJK, ICntrl=      2127 FMM=F ISym2X=1 I1Cent= 0 IOpClX= 0 NMat=1 NMatS=1 NMatT=0.
 ***** Axes restored to original set *****
 -------------------------------------------------------------------
 Center     Atomic                   Forces (Hartrees/Bohr)
 Number     Number              X              Y              Z
 -------------------------------------------------------------------
      1        8          -0.003066688   -0.015118781    0.000000000
      2        7          -0.007596666   -0.005171690    0.000000000
      3        6           0.016918551    0.039144806   -0.000000000
      4        6           0.008652797   -0.024796468    0.000000000
      5        6           0.006127828   -0.010970956    0.000000000
      6        6          -0.018422055   -0.006243085    0.000000000
      7        6          -0.009237282    0.023221037   -0.000000000
      8        1           0.005906041    0.003952418   -0.000000000
      9        1           0.005388290   -0.000985711    0.000000000
     10        1          -0.000580454   -0.004043935    0.000000000
     11        1          -0.002012976    0.004204968   -0.000000000
     12        1          -0.002077385   -0.003192602    0.000000000
 -------------------------------------------------------------------
 Cartesian Forces:  Max     0.039144806 RMS     0.010704324

 GradGradGradGradGradGradGradGradGradGradGradGradGradGradGradGradGradGrad
 Berny optimization.
 FormGI is forming the generalized inverse of G from B-inverse, IUseBI=4.
 Internal  Forces:  Max     0.021424512 RMS     0.006480401
 Search for a local minimum.
 Step number   1 out of a maximum of   64
 All quantities printed in internal units (Hartrees-Bohrs-Radians)
 Mixed Optimization -- RFO/linear search
 Second derivative matrix not updated -- first step.
 ITU=  0
     Eigenvalues ---    0.01300   0.01527   0.01837   0.01952   0.02069
     Eigenvalues ---    0.02158   0.02298   0.02494   0.02602   0.16000
     Eigenvalues ---    0.16000   0.16000   0.16000   0.16000   0.22000
     Eigenvalues ---    0.22000   0.23420   0.25000   0.32350   0.35546
     Eigenvalues ---    0.35616   0.35652   0.35776   0.37986   0.45097
     Eigenvalues ---    0.45980   0.48525   0.55001   0.56595   0.91904
 RFO step:  Lambda=-7.22882230D-03 EMin= 1.29980170D-02
 Linear search not attempted -- first point.
 Iteration  1 RMS(Cart)=  0.02988252 RMS(Int)=  0.00068017
 Iteration  2 RMS(Cart)=  0.00074969 RMS(Int)=  0.00006562
 Iteration  3 RMS(Cart)=  0.00000004 RMS(Int)=  0.00006562
 ClnCor:  largest displacement from symmetrization is 5.91D-11 for atom    11.
 Variable       Old X    -DE/DX   Delta X   Delta X   Delta X     New X
                                 (Linear)    (Quad)   (Total)
    R1        2.32068  -0.00320   0.00000  -0.00346  -0.00346   2.31722
    R2        2.62215   0.00551   0.00000   0.01001   0.00991   2.63206
    R3        2.59460   0.00491   0.00000   0.00965   0.00954   2.60414
    R4        1.91863  -0.00079   0.00000  -0.00171  -0.00171   1.91692
    R5        2.82214  -0.01500   0.00000  -0.04644  -0.04642   2.77572
    R6        2.53291   0.02119   0.00000   0.03663   0.03674   2.56965
    R7        2.04630   0.00190   0.00000   0.00523   0.00523   2.05153
    R8        2.52823   0.01738   0.00000   0.03097   0.03095   2.55918
    R9        2.04433   0.00388   0.00000   0.01063   0.01063   2.05496
   R10        2.72575  -0.00480   0.00000  -0.01027  -0.01018   2.71557
   R11        2.04798   0.00463   0.00000   0.01277   0.01277   2.06075
   R12        2.04686   0.00202   0.00000   0.00557   0.00557   2.05243
    A1        2.15529   0.00677   0.00000   0.02612   0.02592   2.18120
    A2        2.07512  -0.01016   0.00000  -0.05359  -0.05349   2.02164
    A3        2.05277   0.00339   0.00000   0.02747   0.02757   2.08034
    A4        2.16716  -0.01359   0.00000  -0.04965  -0.04960   2.11755
    A5        2.10042   0.02142   0.00000   0.08648   0.08652   2.18694
    A6        2.01561  -0.00783   0.00000  -0.03683  -0.03692   1.97869
    A7        2.08625   0.00974   0.00000   0.03895   0.03907   2.12532
    A8        2.06703  -0.01012   0.00000  -0.05088  -0.05095   2.01608
    A9        2.12991   0.00038   0.00000   0.01194   0.01187   2.14179
   A10        2.10862  -0.00039   0.00000   0.00073   0.00061   2.10923
   A11        2.02864  -0.00111   0.00000  -0.00819  -0.00813   2.02051
   A12        2.14593   0.00151   0.00000   0.00746   0.00752   2.15345
   A13        2.11496  -0.00167   0.00000  -0.00528  -0.00507   2.10989
   A14        2.10803   0.00030   0.00000  -0.00059  -0.00069   2.10733
   A15        2.06019   0.00138   0.00000   0.00587   0.00577   2.06596
   A16        2.08565  -0.00661   0.00000  -0.02369  -0.02361   2.06204
   A17        2.12232   0.00000   0.00000  -0.00792  -0.00796   2.11437
   A18        2.07522   0.00661   0.00000   0.03161   0.03156   2.10678
    D1        3.14159  -0.00000   0.00000  -0.00000   0.00000   3.14159
    D2       -0.00000  -0.00000   0.00000  -0.00000   0.00000   0.00000
    D3       -0.00000  -0.00000   0.00000  -0.00000   0.00000   0.00000
    D4        3.14159  -0.00000   0.00000   0.00000   0.00000   3.14159
    D5        0.00000   0.00000   0.00000  -0.00000  -0.00000   0.00000
    D6        3.14159   0.00000   0.00000   0.00000   0.00000   3.14159
    D7        3.14159   0.00000   0.00000  -0.00000   0.00000   3.14159
    D8        0.00000   0.00000   0.00000   0.00000   0.00000   0.00000
    D9        3.14159   0.00000   0.00000   0.00000   0.00000   3.14159
   D10        0.00000   0.00000   0.00000   0.00000  -0.00000   0.00000
   D11        0.00000   0.00000   0.00000   0.00000   0.00000   0.00000
   D12        3.14159   0.00000   0.00000   0.00000   0.00000   3.14159
   D13       -0.00000  -0.00000   0.00000  -0.00000   0.00000   0.00000
   D14        3.14159  -0.00000   0.00000  -0.00000   0.00000   3.14159
   D15        3.14159  -0.00000   0.00000  -0.00000   0.00000   3.14159
   D16       -0.00000  -0.00000   0.00000  -0.00000   0.00000   0.00000
   D17       -0.00000  -0.00000   0.00000   0.00000   0.00000   0.00000
   D18        3.14159  -0.00000   0.00000   0.00000   0.00000   3.14159
   D19        3.14159  -0.00000   0.00000  -0.00000   0.00000   3.14159
   D20       -0.00000  -0.00000   0.00000  -0.00000   0.00000   0.00000
   D21        0.00000   0.00000   0.00000   0.00000   0.00000   0.00000
   D22        3.14159   0.00000   0.00000  -0.00000   0.00000   3.14159
   D23        3.14159   0.00000   0.00000   0.00000   0.00000   3.14159
   D24        0.00000   0.00000   0.00000   0.00000  -0.00000   0.00000
         Item               Value     Threshold  Converged?
 Maximum Force            0.021425     0.000450     NO 
 RMS     Force            0.006480     0.000300     NO 
 Maximum Displacement     0.103881     0.001800     NO 
 RMS     Displacement     0.029837     0.001200     NO 
 Predicted change in Energy=-3.710525D-03
 GradGradGradGradGradGradGradGradGradGradGradGradGradGradGradGradGradGrad

                          Input orientation:                          
 ---------------------------------------------------------------------
 Center     Atomic      Atomic             Coordinates (Angstroms)
 Number     Number       Type             X           Y           Z
 ---------------------------------------------------------------------
      1          8           0        2.295162   -0.077972    0.000000
      2          7           0        0.284599   -1.162951    0.000000
      3          6           0        1.070658   -0.013133   -0.000000
      4          6           0        0.286392    1.228815   -0.000000
      5          6           0       -1.093375   -1.177762    0.000000
      6          6           0       -1.073357    1.216956   -0.000000
      7          6           0       -1.800282   -0.022641    0.000000
      8          1           0        0.788889   -2.043107    0.000000
      9          1           0        0.865144    2.147304   -0.000000
     10          1           0       -1.555537   -2.162105    0.000000
     11          1           0       -1.638932    2.149328   -0.000000
     12          1           0       -2.886362   -0.028733    0.000000
 ---------------------------------------------------------------------
                    Distance matrix (angstroms):
                    1          2          3          4          5
     1  O    0.000000
     2  N    2.284632   0.000000
     3  C    1.226220   1.392828   0.000000
     4  C    2.396424   2.391766   1.468845   0.000000
     5  C    3.562544   1.378053   2.457518   2.774052   0.000000
     6  C    3.608844   2.740072   2.471824   1.359801   2.394801
     7  C    4.095818   2.376349   2.870955   2.433177   1.354260
     8  H    2.476008   1.014389   2.049436   3.310284   2.071652
     9  H    2.645147   3.360777   2.170190   1.085623   3.858997
    10  H    4.378526   2.093898   3.393373   3.858891   1.087440
    11  H    4.520836   3.830295   3.466715   2.134061   3.371522
    12  H    5.181758   3.367705   3.957050   3.412886   2.129570
                    6          7          8          9         10
     6  C    0.000000
     7  C    1.437018   0.000000
     8  H    3.754460   3.284218   0.000000
     9  H    2.150195   3.437028   4.191105   0.000000
    10  H    3.413290   2.153417   2.347444   4.942743   0.000000
    11  H    1.090502   2.177954   4.844670   2.504077   4.312240
    12  H    2.199710   1.086097   4.191082   4.336927   2.514433
                   11         12
    11  H    0.000000
    12  H    2.509987   0.000000
 Stoichiometry    C5H5NO
 Framework group  CS[SG(C5H5NO)]
 Deg. of freedom    21
 Full point group                 CS      NOp   2
 Largest Abelian subgroup         CS      NOp   2
 Largest concise Abelian subgroup C1      NOp   1
                         Standard orientation:                         
 ---------------------------------------------------------------------
 Center     Atomic      Atomic             Coordinates (Angstroms)
 Number     Number       Type             X           Y           Z
 ---------------------------------------------------------------------
      1          8           0       -0.079814    2.289019    0.000000
      2          7           0       -1.140115    0.265333    0.000000
      3          6           0       -0.000000    1.065399    0.000000
      4          6           0        1.251449    0.296386   -0.000000
      5          6           0       -1.138067   -1.112719    0.000000
      6          6           0        1.256226   -1.063406   -0.000000
      7          6           0        0.025615   -1.805442   -0.000000
      8          1           0       -2.026375    0.758818    0.000000
      9          1           0        2.162790    0.886332   -0.000000
     10          1           0       -2.116683   -1.586888    0.000000
     11          1           0        2.195448   -1.617532   -0.000000
     12          1           0        0.032810   -2.891515   -0.000000
 ---------------------------------------------------------------------
 Rotational constants (GHZ):      5.6379921      2.7775248      1.8608082
 Basis read from rwf:  (5D, 7F)
 There are    97 symmetry adapted cartesian basis functions of A'  symmetry.
 There are    33 symmetry adapted cartesian basis functions of A"  symmetry.
 There are    90 symmetry adapted basis functions of A'  symmetry.
 There are    33 symmetry adapted basis functions of A"  symmetry.
   123 basis functions,   238 primitive gaussians,   130 cartesian basis functions
    25 alpha electrons       25 beta electrons
       nuclear repulsion energy       274.5901100718 Hartrees.
 NAtoms=   12 NActive=   12 NUniq=   12 SFac= 1.00D+00 NAtFMM=   60 NAOKFM=F Big=F
 Integral buffers will be    131072 words long.
 Raffenetti 2 integral format.
 Two-electron integral symmetry is turned on.
 One-electron integrals computed using PRISM.
 NBasis=   123 RedAO= T EigKep=  1.67D-03  NBF=    90    33
 NBsUse=   123 1.00D-06 EigRej= -1.00D+00 NBFU=    90    33
 Initial guess from the checkpoint file:  "PY_pc-1_B3LYP_OPT_FREQ.chk"
 B after Tr=    -0.000000    0.000000    0.000000
         Rot=    0.999907    0.000000   -0.000000   -0.013653 Ang=  -1.56 deg.
 Initial guess orbital symmetries:
       Occupied  (A') (A') (A') (A') (A') (A') (A') (A') (A') (A')
                 (A') (A') (A') (A') (A') (A') (A') (A") (A') (A')
                 (A') (A") (A") (A') (A")
       Virtual   (A') (A') (A') (A') (A') (A') (A') (A') (A') (A')
                 (A') (A') (A') (A') (A') (A') (A') (A') (A') (A')
                 (A') (A') (A') (A') (A') (A') (A') (A') (A') (A')
                 (A') (A') (A') (A') (A') (A') (A') (A') (A') (A')
                 (A') (A') (A') (A') (A') (A') (A') (A') (A') (A')
                 (A') (A') (A') (A') (A') (A') (A') (A') (A') (A')
                 (A') (A') (A') (A') (A') (A') (A') (A') (A') (A")
                 (A") (A") (A") (A") (A") (A") (A") (A") (A") (A")
                 (A") (A") (A") (A") (A") (A") (A") (A") (A") (A")
                 (A") (A") (A") (A") (A") (A") (A") (A")
 ExpMin= 1.06D-01 ExpMax= 2.31D+03 ExpMxC= 3.47D+02 IAcc=1 IRadAn=         1 AccDes= 0.00D+00
 Harris functional with IExCor=  402 and IRadAn=       1 diagonalized for initial guess.
 HarFok:  IExCor=  402 AccDes= 0.00D+00 IRadAn=         1 IDoV= 1 UseB2=F ITyADJ=14
 ICtDFT=  3500011 ScaDFX=  1.000000  1.000000  1.000000  1.000000
 FoFCou: FMM=F IPFlag=           0 FMFlag=      100000 FMFlg1=           0
         NFxFlg=           0 DoJE=T BraDBF=F KetDBF=T FulRan=T
         wScrn=  0.000000 ICntrl=     500 IOpCl=  0 I1Cent=   200000004 NGrid=           0
         NMat0=    1 NMatS0=      1 NMatT0=    0 NMatD0=    1 NMtDS0=    0 NMtDT0=    0
 Petite list used in FoFCou.
 Keep R1 ints in memory in symmetry-blocked form, NReq=44430771.
 Requested convergence on RMS density matrix=1.00D-08 within 128 cycles.
 Requested convergence on MAX density matrix=1.00D-06.
 Requested convergence on             energy=1.00D-06.
 No special actions if energy rises.
 Integral accuracy reduced to 1.0D-05 until final iterations.
 Initial convergence to 1.0D-05 achieved.  Increase integral accuracy.
 SCF Done:  E(RB3LYP) =  -323.472395957     A.U. after   13 cycles
            NFock= 13  Conv=0.57D-08     -V/T= 2.0046
 Calling FoFJK, ICntrl=      2127 FMM=F ISym2X=1 I1Cent= 0 IOpClX= 0 NMat=1 NMatS=1 NMatT=0.
 ***** Axes restored to original set *****
 -------------------------------------------------------------------
 Center     Atomic                   Forces (Hartrees/Bohr)
 Number     Number              X              Y              Z
 -------------------------------------------------------------------
      1        8          -0.001584768   -0.002491948    0.000000000
      2        7          -0.014462287   -0.006056128    0.000000000
      3        6           0.004864034    0.015452434   -0.000000000
      4        6           0.003384142   -0.006205876    0.000000000
      5        6           0.007266366   -0.005293068    0.000000000
      6        6          -0.004024615   -0.004377274    0.000000000
      7        6           0.000314236    0.008874961   -0.000000000
      8        1           0.001876555    0.000191891   -0.000000000
      9        1           0.000061774    0.001064174   -0.000000000
     10        1           0.000312288   -0.000080713    0.000000000
     11        1           0.001592055    0.000349673   -0.000000000
     12        1           0.000400219   -0.001428125    0.000000000
 -------------------------------------------------------------------
 Cartesian Forces:  Max     0.015452434 RMS     0.004629768

 GradGradGradGradGradGradGradGradGradGradGradGradGradGradGradGradGradGrad
 Berny optimization.
 Using GEDIIS/GDIIS optimizer.
 FormGI is forming the generalized inverse of G from B-inverse, IUseBI=4.
 Internal  Forces:  Max     0.008695816 RMS     0.002121006
 Search for a local minimum.
 Step number   2 out of a maximum of   64
 All quantities printed in internal units (Hartrees-Bohrs-Radians)
 Mixed Optimization -- RFO/linear search
 Update second derivatives using D2CorX and points    1    2
 DE= -4.20D-03 DEPred=-3.71D-03 R= 1.13D+00
 TightC=F SS=  1.41D+00  RLast= 1.64D-01 DXNew= 5.0454D-01 4.9085D-01
 Trust test= 1.13D+00 RLast= 1.64D-01 DXMaxT set to 4.91D-01
 ITU=  1  0
 Use linear search instead of GDIIS.
     Eigenvalues ---    0.01270   0.01524   0.01860   0.01957   0.02072
     Eigenvalues ---    0.02151   0.02304   0.02497   0.02600   0.14605
     Eigenvalues ---    0.16000   0.16000   0.16000   0.16398   0.21029
     Eigenvalues ---    0.22000   0.23183   0.24020   0.31142   0.35579
     Eigenvalues ---    0.35618   0.35677   0.35828   0.37917   0.45112
     Eigenvalues ---    0.45925   0.49027   0.54694   0.59103   0.91829
 RFO step:  Lambda=-6.62271101D-04 EMin= 1.26994072D-02
 Quartic linear search produced a step of  0.19798.
 Iteration  1 RMS(Cart)=  0.00798461 RMS(Int)=  0.00008283
 Iteration  2 RMS(Cart)=  0.00008601 RMS(Int)=  0.00001610
 Iteration  3 RMS(Cart)=  0.00000000 RMS(Int)=  0.00001610
 ClnCor:  largest displacement from symmetrization is 8.45D-12 for atom    11.
 Variable       Old X    -DE/DX   Delta X   Delta X   Delta X     New X
                                 (Linear)    (Quad)   (Total)
    R1        2.31722  -0.00145  -0.00068  -0.00152  -0.00220   2.31502
    R2        2.63206   0.00870   0.00196   0.02091   0.02286   2.65492
    R3        2.60414  -0.00705   0.00189  -0.01758  -0.01572   2.58842
    R4        1.91692   0.00077  -0.00034   0.00222   0.00188   1.91880
    R5        2.77572  -0.00645  -0.00919  -0.01825  -0.02742   2.74829
    R6        2.56965   0.00120   0.00727  -0.00159   0.00571   2.57537
    R7        2.05153   0.00093   0.00104   0.00256   0.00360   2.05513
    R8        2.55918   0.00410   0.00613   0.00515   0.01127   2.57045
    R9        2.05496  -0.00006   0.00210  -0.00136   0.00075   2.05571
   R10        2.71557  -0.00318  -0.00201  -0.00882  -0.01082   2.70475
   R11        2.06075  -0.00053   0.00253  -0.00316  -0.00063   2.06012
   R12        2.05243  -0.00039   0.00110  -0.00192  -0.00082   2.05161
    A1        2.18120   0.00125   0.00513   0.00468   0.00977   2.19097
    A2        2.02164  -0.00228  -0.01059  -0.01013  -0.02070   2.00093
    A3        2.08034   0.00103   0.00546   0.00545   0.01093   2.09128
    A4        2.11755  -0.00250  -0.00982  -0.00670  -0.01652   2.10104
    A5        2.18694   0.00345   0.01713   0.00680   0.02394   2.21088
    A6        1.97869  -0.00095  -0.00731  -0.00011  -0.00742   1.97127
    A7        2.12532   0.00003   0.00774  -0.00463   0.00314   2.12846
    A8        2.01608   0.00051  -0.01009   0.00978  -0.00033   2.01575
    A9        2.14179  -0.00055   0.00235  -0.00515  -0.00282   2.13897
   A10        2.10923  -0.00175   0.00012  -0.00927  -0.00919   2.10004
   A11        2.02051   0.00055  -0.00161   0.00307   0.00148   2.02199
   A12        2.15345   0.00120   0.00149   0.00620   0.00771   2.16116
   A13        2.10989   0.00114  -0.00100   0.00577   0.00481   2.11470
   A14        2.10733  -0.00216  -0.00014  -0.01436  -0.01452   2.09281
   A15        2.06596   0.00102   0.00114   0.00859   0.00971   2.07567
   A16        2.06204   0.00028  -0.00467   0.00356  -0.00111   2.06093
   A17        2.11437  -0.00161  -0.00158  -0.01053  -0.01210   2.10226
   A18        2.10678   0.00133   0.00625   0.00696   0.01321   2.11999
    D1        3.14159   0.00000   0.00000   0.00000   0.00000   3.14159
    D2       -0.00000   0.00000   0.00000  -0.00000   0.00000   0.00000
    D3        0.00000   0.00000   0.00000  -0.00000   0.00000   0.00000
    D4        3.14159   0.00000   0.00000  -0.00000   0.00000   3.14159
    D5       -0.00000  -0.00000   0.00000  -0.00000   0.00000   0.00000
    D6        3.14159  -0.00000   0.00000  -0.00000   0.00000   3.14159
    D7        3.14159  -0.00000   0.00000  -0.00000   0.00000   3.14159
    D8        0.00000   0.00000   0.00000  -0.00000  -0.00000   0.00000
    D9        3.14159   0.00000   0.00000   0.00000   0.00000   3.14159
   D10        0.00000  -0.00000   0.00000   0.00000  -0.00000   0.00000
   D11        0.00000   0.00000   0.00000   0.00000   0.00000   0.00000
   D12        3.14159   0.00000   0.00000   0.00000   0.00000   3.14159
   D13        0.00000  -0.00000   0.00000  -0.00000  -0.00000   0.00000
   D14        3.14159  -0.00000   0.00000  -0.00000   0.00000   3.14159
   D15        3.14159  -0.00000   0.00000  -0.00000   0.00000   3.14159
   D16       -0.00000  -0.00000   0.00000  -0.00000   0.00000   0.00000
   D17        0.00000   0.00000   0.00000   0.00000  -0.00000   0.00000
   D18        3.14159   0.00000   0.00000   0.00000   0.00000   3.14159
   D19        3.14159   0.00000   0.00000   0.00000   0.00000   3.14159
   D20       -0.00000  -0.00000   0.00000   0.00000   0.00000   0.00000
   D21       -0.00000   0.00000   0.00000  -0.00000   0.00000   0.00000
   D22        3.14159   0.00000   0.00000  -0.00000   0.00000   3.14159
   D23        3.14159   0.00000   0.00000  -0.00000   0.00000   3.14159
   D24        0.00000   0.00000   0.00000  -0.00000   0.00000   0.00000
         Item               Value     Threshold  Converged?
 Maximum Force            0.008696     0.000450     NO 
 RMS     Force            0.002121     0.000300     NO 
 Maximum Displacement     0.024720     0.001800     NO 
 RMS     Displacement     0.008001     0.001200     NO 
 Predicted change in Energy=-4.466127D-04
 GradGradGradGradGradGradGradGradGradGradGradGradGradGradGradGradGradGrad

                          Input orientation:                          
 ---------------------------------------------------------------------
 Center     Atomic      Atomic             Coordinates (Angstroms)
 Number     Number       Type             X           Y           Z
 ---------------------------------------------------------------------
      1          8           0        2.292195   -0.089646    0.000000
      2          7           0        0.273745   -1.157959    0.000000
      3          6           0        1.070372   -0.000725   -0.000000
      4          6           0        0.288710    1.225689   -0.000000
      5          6           0       -1.095785   -1.181634    0.000000
      6          6           0       -1.074049    1.212378   -0.000000
      7          6           0       -1.802720   -0.019546   -0.000000
      8          1           0        0.793844   -2.030026    0.000000
      9          1           0        0.864920    2.148020   -0.000000
     10          1           0       -1.553133   -2.168660    0.000000
     11          1           0       -1.626839    2.151998   -0.000000
     12          1           0       -2.888260   -0.035890   -0.000000
 ---------------------------------------------------------------------
                    Distance matrix (angstroms):
                    1          2          3          4          5
     1  O    0.000000
     2  N    2.283733   0.000000
     3  C    1.225054   1.404922   0.000000
     4  C    2.396677   2.383695   1.454334   0.000000
     5  C    3.559614   1.369734   2.467141   2.777054   0.000000
     6  C    3.609276   2.726729   2.463770   1.362825   2.394110
     7  C    4.095516   2.368057   2.873155   2.434069   1.360223
     8  H    2.451557   1.015383   2.048055   3.294668   2.071344
     9  H    2.654104   3.358420   2.158545   1.087526   3.864060
    10  H    4.371367   2.087821   3.403340   3.861863   1.087836
    11  H    4.514842   3.816810   3.450966   2.127764   3.375666
    12  H    5.180735   3.355192   3.958789   3.418293   2.127368
                    6          7          8          9         10
     6  C    0.000000
     7  C    1.431292   0.000000
     8  H    3.741952   3.283927   0.000000
     9  H    2.152912   3.437244   4.178650   0.000000
    10  H    3.414811   2.163559   2.351068   4.947798   0.000000
    11  H    1.090166   2.178655   4.832083   2.491762   4.321287
    12  H    2.202166   1.085663   4.187418   4.342330   2.516201
                   11         12
    11  H    0.000000
    12  H    2.525479   0.000000
 Stoichiometry    C5H5NO
 Framework group  CS[SG(C5H5NO)]
 Deg. of freedom    21
 Full point group                 CS      NOp   2
 Largest Abelian subgroup         CS      NOp   2
 Largest concise Abelian subgroup C1      NOp   1
                         Standard orientation:                         
 ---------------------------------------------------------------------
 Center     Atomic      Atomic             Coordinates (Angstroms)
 Number     Number       Type             X           Y           Z
 ---------------------------------------------------------------------
      1          8           0       -0.118752    2.286707   -0.000000
      2          7           0       -1.137422    0.242753   -0.000000
      3          6           0        0.000000    1.067422    0.000000
      4          6           0        1.245149    0.315963    0.000000
      5          6           0       -1.127622   -1.126946   -0.000000
      6          6           0        1.265143   -1.046716    0.000000
      7          6           0        0.051394   -1.805273    0.000000
      8          1           0       -2.021937    0.741386   -0.000000
      9          1           0        2.153124    0.914539    0.000000
     10          1           0       -2.103178   -1.608277   -0.000000
     11          1           0        2.217991   -1.576379    0.000000
     12          1           0        0.061581   -2.890888    0.000000
 ---------------------------------------------------------------------
 Rotational constants (GHZ):      5.6543907      2.7793217      1.8633989
 Basis read from rwf:  (5D, 7F)
 There are    97 symmetry adapted cartesian basis functions of A'  symmetry.
 There are    33 symmetry adapted cartesian basis functions of A"  symmetry.
 There are    90 symmetry adapted basis functions of A'  symmetry.
 There are    33 symmetry adapted basis functions of A"  symmetry.
   123 basis functions,   238 primitive gaussians,   130 cartesian basis functions
    25 alpha electrons       25 beta electrons
       nuclear repulsion energy       274.7832470325 Hartrees.
 NAtoms=   12 NActive=   12 NUniq=   12 SFac= 1.00D+00 NAtFMM=   60 NAOKFM=F Big=F
 Integral buffers will be    131072 words long.
 Raffenetti 2 integral format.
 Two-electron integral symmetry is turned on.
 One-electron integrals computed using PRISM.
 NBasis=   123 RedAO= T EigKep=  1.66D-03  NBF=    90    33
 NBsUse=   123 1.00D-06 EigRej= -1.00D+00 NBFU=    90    33
 Initial guess from the checkpoint file:  "PY_pc-1_B3LYP_OPT_FREQ.chk"
 B after Tr=     0.000000    0.000000   -0.000000
         Rot=    0.999977   -0.000000   -0.000000   -0.006754 Ang=  -0.77 deg.
 Initial guess orbital symmetries:
       Occupied  (A') (A') (A') (A') (A') (A') (A') (A') (A') (A')
                 (A') (A') (A') (A') (A') (A') (A') (A") (A') (A')
                 (A') (A") (A") (A') (A")
       Virtual   (A') (A') (A') (A') (A') (A') (A') (A') (A') (A')
                 (A') (A') (A') (A') (A') (A') (A') (A') (A') (A')
                 (A') (A') (A') (A') (A') (A') (A') (A') (A') (A')
                 (A') (A') (A') (A') (A') (A') (A') (A') (A') (A')
                 (A') (A') (A') (A') (A') (A') (A') (A') (A') (A')
                 (A') (A') (A') (A') (A') (A') (A') (A') (A') (A')
                 (A') (A') (A') (A') (A') (A') (A') (A') (A') (A")
                 (A") (A") (A") (A") (A") (A") (A") (A") (A") (A")
                 (A") (A") (A") (A") (A") (A") (A") (A") (A") (A")
                 (A") (A") (A") (A") (A") (A") (A") (A")
 ExpMin= 1.06D-01 ExpMax= 2.31D+03 ExpMxC= 3.47D+02 IAcc=1 IRadAn=         1 AccDes= 0.00D+00
 Harris functional with IExCor=  402 and IRadAn=       1 diagonalized for initial guess.
 HarFok:  IExCor=  402 AccDes= 0.00D+00 IRadAn=         1 IDoV= 1 UseB2=F ITyADJ=14
 ICtDFT=  3500011 ScaDFX=  1.000000  1.000000  1.000000  1.000000
 FoFCou: FMM=F IPFlag=           0 FMFlag=      100000 FMFlg1=           0
         NFxFlg=           0 DoJE=T BraDBF=F KetDBF=T FulRan=T
         wScrn=  0.000000 ICntrl=     500 IOpCl=  0 I1Cent=   200000004 NGrid=           0
         NMat0=    1 NMatS0=      1 NMatT0=    0 NMatD0=    1 NMtDS0=    0 NMtDT0=    0
 Petite list used in FoFCou.
 Keep R1 ints in memory in symmetry-blocked form, NReq=44430771.
 Requested convergence on RMS density matrix=1.00D-08 within 128 cycles.
 Requested convergence on MAX density matrix=1.00D-06.
 Requested convergence on             energy=1.00D-06.
 No special actions if energy rises.
 Integral accuracy reduced to 1.0D-05 until final iterations.
 Initial convergence to 1.0D-05 achieved.  Increase integral accuracy.
 SCF Done:  E(RB3LYP) =  -323.472942477     A.U. after   12 cycles
            NFock= 12  Conv=0.91D-08     -V/T= 2.0046
 Calling FoFJK, ICntrl=      2127 FMM=F ISym2X=1 I1Cent= 0 IOpClX= 0 NMat=1 NMatS=1 NMatT=0.
 ***** Axes restored to original set *****
 -------------------------------------------------------------------
 Center     Atomic                   Forces (Hartrees/Bohr)
 Number     Number              X              Y              Z
 -------------------------------------------------------------------
      1        8          -0.000041942   -0.000257641    0.000000000
      2        7          -0.005769452   -0.003887539    0.000000000
      3        6           0.001928970    0.003158978   -0.000000000
      4        6           0.001880926    0.000749049   -0.000000000
      5        6           0.004156041   -0.000853518    0.000000000
      6        6          -0.001769395   -0.002161407    0.000000000
      7        6          -0.000035547    0.002563037   -0.000000000
      8        1           0.000430809    0.000014190   -0.000000000
      9        1          -0.001042730    0.000351449   -0.000000000
     10        1          -0.000294881    0.000484982   -0.000000000
     11        1           0.000478433   -0.000096902    0.000000000
     12        1           0.000078768   -0.000064680    0.000000000
 -------------------------------------------------------------------
 Cartesian Forces:  Max     0.005769452 RMS     0.001671727

 GradGradGradGradGradGradGradGradGradGradGradGradGradGradGradGradGradGrad
 Berny optimization.
 Using GEDIIS/GDIIS optimizer.
 FormGI is forming the generalized inverse of G from B-inverse, IUseBI=4.
 Internal  Forces:  Max     0.004085751 RMS     0.000833084
 Search for a local minimum.
 Step number   3 out of a maximum of   64
 All quantities printed in internal units (Hartrees-Bohrs-Radians)
 Mixed Optimization -- En-DIIS/RFO-DIIS
 Update second derivatives using D2CorX and points    1    2    3
 DE= -5.47D-04 DEPred=-4.47D-04 R= 1.22D+00
 TightC=F SS=  1.41D+00  RLast= 6.47D-02 DXNew= 8.2551D-01 1.9396D-01
 Trust test= 1.22D+00 RLast= 6.47D-02 DXMaxT set to 4.91D-01
 ITU=  1  1  0
 Use linear search instead of GDIIS.
     Eigenvalues ---    0.01259   0.01526   0.01860   0.01958   0.02067
     Eigenvalues ---    0.02141   0.02302   0.02496   0.02599   0.12716
     Eigenvalues ---    0.16000   0.16000   0.16154   0.16720   0.20617
     Eigenvalues ---    0.22386   0.22983   0.24094   0.31627   0.35560
     Eigenvalues ---    0.35608   0.35700   0.35826   0.37868   0.44178
     Eigenvalues ---    0.45115   0.46908   0.54534   0.59301   0.91897
 RFO step:  Lambda=-8.36112253D-05 EMin= 1.25932730D-02
 Quartic linear search produced a step of  0.28146.
 Iteration  1 RMS(Cart)=  0.00335591 RMS(Int)=  0.00001426
 Iteration  2 RMS(Cart)=  0.00001416 RMS(Int)=  0.00000273
 Iteration  3 RMS(Cart)=  0.00000000 RMS(Int)=  0.00000273
 ClnCor:  largest displacement from symmetrization is 1.09D-10 for atom     1.
 Variable       Old X    -DE/DX   Delta X   Delta X   Delta X     New X
                                 (Linear)    (Quad)   (Total)
    R1        2.31502  -0.00002  -0.00062   0.00024  -0.00038   2.31464
    R2        2.65492   0.00409   0.00643   0.00694   0.01337   2.66829
    R3        2.58842  -0.00311  -0.00442  -0.00425  -0.00868   2.57974
    R4        1.91880   0.00021   0.00053   0.00014   0.00067   1.91947
    R5        2.74829   0.00025  -0.00772   0.00462  -0.00309   2.74520
    R6        2.57537   0.00049   0.00161   0.00154   0.00316   2.57852
    R7        2.05513  -0.00025   0.00101  -0.00136  -0.00034   2.05478
    R8        2.57045   0.00110   0.00317   0.00129   0.00446   2.57491
    R9        2.05571  -0.00032   0.00021  -0.00079  -0.00058   2.05513
   R10        2.70475  -0.00185  -0.00305  -0.00455  -0.00760   2.69715
   R11        2.06012  -0.00033  -0.00018  -0.00047  -0.00065   2.05946
   R12        2.05161  -0.00008  -0.00023   0.00012  -0.00011   2.05150
    A1        2.19097  -0.00042   0.00275  -0.00256   0.00018   2.19115
    A2        2.00093  -0.00015  -0.00583  -0.00022  -0.00605   1.99489
    A3        2.09128   0.00057   0.00308   0.00279   0.00587   2.09714
    A4        2.10104  -0.00020  -0.00465  -0.00049  -0.00514   2.09590
    A5        2.21088   0.00041   0.00674   0.00055   0.00728   2.21816
    A6        1.97127  -0.00021  -0.00209  -0.00006  -0.00214   1.96912
    A7        2.12846  -0.00073   0.00088  -0.00244  -0.00154   2.12692
    A8        2.01575   0.00147  -0.00009   0.00817   0.00808   2.02383
    A9        2.13897  -0.00073  -0.00079  -0.00574  -0.00653   2.13244
   A10        2.10004   0.00036  -0.00259   0.00317   0.00057   2.10061
   A11        2.02199   0.00030   0.00042   0.00245   0.00287   2.02486
   A12        2.16116  -0.00066   0.00217  -0.00562  -0.00344   2.15772
   A13        2.11470   0.00074   0.00135   0.00250   0.00386   2.11856
   A14        2.09281  -0.00075  -0.00409  -0.00196  -0.00604   2.08676
   A15        2.07567   0.00000   0.00273  -0.00054   0.00219   2.07786
   A16        2.06093   0.00025  -0.00031  -0.00061  -0.00093   2.06000
   A17        2.10226  -0.00019  -0.00341   0.00137  -0.00203   2.10023
   A18        2.11999  -0.00006   0.00372  -0.00076   0.00296   2.12295
    D1        3.14159  -0.00000   0.00000   0.00000   0.00000   3.14159
    D2       -0.00000  -0.00000   0.00000   0.00000   0.00000   0.00000
    D3        0.00000   0.00000   0.00000   0.00000   0.00000   0.00000
    D4        3.14159   0.00000   0.00000   0.00000   0.00000   3.14159
    D5        0.00000  -0.00000   0.00000  -0.00000   0.00000   0.00000
    D6        3.14159   0.00000   0.00000  -0.00000   0.00000   3.14159
    D7        3.14159  -0.00000   0.00000  -0.00000   0.00000   3.14159
    D8        0.00000   0.00000   0.00000  -0.00000   0.00000   0.00000
    D9        3.14159   0.00000   0.00000   0.00000   0.00000   3.14159
   D10       -0.00000   0.00000   0.00000  -0.00000   0.00000   0.00000
   D11       -0.00000  -0.00000   0.00000  -0.00000   0.00000   0.00000
   D12        3.14159  -0.00000   0.00000  -0.00000   0.00000   3.14159
   D13        0.00000   0.00000   0.00000  -0.00000  -0.00000   0.00000
   D14        3.14159  -0.00000   0.00000  -0.00000   0.00000   3.14159
   D15        3.14159   0.00000   0.00000   0.00000   0.00000   3.14159
   D16        0.00000   0.00000   0.00000   0.00000   0.00000   0.00000
   D17       -0.00000   0.00000   0.00000  -0.00000   0.00000   0.00000
   D18        3.14159   0.00000   0.00000   0.00000   0.00000   3.14159
   D19        3.14159  -0.00000   0.00000  -0.00000   0.00000   3.14159
   D20        0.00000  -0.00000   0.00000  -0.00000  -0.00000   0.00000
   D21        0.00000  -0.00000   0.00000   0.00000   0.00000   0.00000
   D22        3.14159  -0.00000   0.00000   0.00000   0.00000   3.14159
   D23        3.14159   0.00000   0.00000   0.00000   0.00000   3.14159
   D24        0.00000  -0.00000   0.00000   0.00000  -0.00000   0.00000
         Item               Value     Threshold  Converged?
 Maximum Force            0.004086     0.000450     NO 
 RMS     Force            0.000833     0.000300     NO 
 Maximum Displacement     0.012949     0.001800     NO 
 RMS     Displacement     0.003354     0.001200     NO 
 Predicted change in Energy=-6.968440D-05
 GradGradGradGradGradGradGradGradGradGradGradGradGradGradGradGradGradGrad

                          Input orientation:                          
 ---------------------------------------------------------------------
 Center     Atomic      Atomic             Coordinates (Angstroms)
 Number     Number       Type             X           Y           Z
 ---------------------------------------------------------------------
      1          8           0        2.293492   -0.094408    0.000000
      2          7           0        0.270524   -1.160060    0.000000
      3          6           0        1.072446    0.002119    0.000000
      4          6           0        0.290387    1.226339   -0.000000
      5          6           0       -1.094434   -1.182398    0.000000
      6          6           0       -1.074004    1.209486   -0.000000
      7          6           0       -1.802192   -0.018050   -0.000000
      8          1           0        0.795112   -2.029848    0.000000
      9          1           0        0.858068    2.153731   -0.000000
     10          1           0       -1.555388   -2.167407    0.000000
     11          1           0       -1.623364    2.150716   -0.000000
     12          1           0       -2.887646   -0.036221   -0.000000
 ---------------------------------------------------------------------
                    Distance matrix (angstroms):
                    1          2          3          4          5
     1  O    0.000000
     2  N    2.286485   0.000000
     3  C    1.224856   1.411999   0.000000
     4  C    2.399334   2.386482   1.452698   0.000000
     5  C    3.558337   1.365140   2.469504   2.778443   0.000000
     6  C    3.611118   2.724428   2.462718   1.364495   2.391972
     7  C    4.096396   2.366503   2.874708   2.434623   1.362582
     8  H    2.447666   1.015738   2.050806   3.295072   2.070883
     9  H    2.667316   3.365475   2.162265   1.087344   3.865491
    10  H    4.371636   2.085354   3.407690   3.863211   1.087530
    11  H    4.514681   3.814190   3.447297   2.125303   3.374821
    12  H    5.181464   3.352171   3.960277   3.419642   2.128223
                    6          7          8          9         10
     6  C    0.000000
     7  C    1.427271   0.000000
     8  H    3.739904   3.285319   0.000000
     9  H    2.150465   3.434183   4.184052   0.000000
    10  H    3.411032   2.163480   2.354522   4.949444   0.000000
    11  H    1.089820   2.176126   4.829714   2.481433   4.318657
    12  H    2.200246   1.085606   4.187751   4.338924   2.513337
                   11         12
    11  H    0.000000
    12  H    2.526084   0.000000
 Stoichiometry    C5H5NO
 Framework group  CS[SG(C5H5NO)]
 Deg. of freedom    21
 Full point group                 CS      NOp   2
 Largest Abelian subgroup         CS      NOp   2
 Largest concise Abelian subgroup C1      NOp   1
                         Standard orientation:                         
 ---------------------------------------------------------------------
 Center     Atomic      Atomic             Coordinates (Angstroms)
 Number     Number       Type             X           Y           Z
 ---------------------------------------------------------------------
      1          8           0       -0.130423    2.287119    0.000000
      2          7           0       -1.139445    0.235317    0.000000
      3          6           0        0.000000    1.069227    0.000000
      4          6           0        1.245481    0.321491    0.000000
      5          6           0       -1.123842   -1.129734    0.000000
      6          6           0        1.266551   -1.042841    0.000000
      7          6           0        0.059725   -1.804861    0.000000
      8          1           0       -2.023475    0.735532    0.000000
      9          1           0        2.156738    0.914725    0.000000
     10          1           0       -2.095660   -1.617884    0.000000
     11          1           0        2.222683   -1.565832    0.000000
     12          1           0        0.071726   -2.890401    0.000000
 ---------------------------------------------------------------------
 Rotational constants (GHZ):      5.6517079      2.7784314      1.8627074
 Basis read from rwf:  (5D, 7F)
 There are    97 symmetry adapted cartesian basis functions of A'  symmetry.
 There are    33 symmetry adapted cartesian basis functions of A"  symmetry.
 There are    90 symmetry adapted basis functions of A'  symmetry.
 There are    33 symmetry adapted basis functions of A"  symmetry.
   123 basis functions,   238 primitive gaussians,   130 cartesian basis functions
    25 alpha electrons       25 beta electrons
       nuclear repulsion energy       274.7396268818 Hartrees.
 NAtoms=   12 NActive=   12 NUniq=   12 SFac= 1.00D+00 NAtFMM=   60 NAOKFM=F Big=F
 Integral buffers will be    131072 words long.
 Raffenetti 2 integral format.
 Two-electron integral symmetry is turned on.
 One-electron integrals computed using PRISM.
 NBasis=   123 RedAO= T EigKep=  1.66D-03  NBF=    90    33
 NBsUse=   123 1.00D-06 EigRej= -1.00D+00 NBFU=    90    33
 Initial guess from the checkpoint file:  "PY_pc-1_B3LYP_OPT_FREQ.chk"
 B after Tr=    -0.000000   -0.000000   -0.000000
         Rot=    0.999998   -0.000000   -0.000000   -0.001947 Ang=  -0.22 deg.
 Initial guess orbital symmetries:
       Occupied  (A') (A') (A') (A') (A') (A') (A') (A') (A') (A')
                 (A') (A') (A') (A') (A') (A') (A') (A") (A') (A')
                 (A') (A") (A") (A') (A")
       Virtual   (A') (A') (A') (A') (A') (A') (A') (A') (A') (A')
                 (A') (A') (A') (A') (A') (A') (A') (A') (A') (A')
                 (A') (A') (A') (A') (A') (A') (A') (A') (A') (A')
                 (A') (A') (A') (A') (A') (A') (A') (A') (A') (A')
                 (A') (A') (A') (A') (A') (A') (A') (A') (A') (A')
                 (A') (A') (A') (A') (A') (A') (A') (A') (A') (A')
                 (A') (A') (A') (A') (A') (A') (A') (A') (A') (A")
                 (A") (A") (A") (A") (A") (A") (A") (A") (A") (A")
                 (A") (A") (A") (A") (A") (A") (A") (A") (A") (A")
                 (A") (A") (A") (A") (A") (A") (A") (A")
 Keep R1 ints in memory in symmetry-blocked form, NReq=44430771.
 Requested convergence on RMS density matrix=1.00D-08 within 128 cycles.
 Requested convergence on MAX density matrix=1.00D-06.
 Requested convergence on             energy=1.00D-06.
 No special actions if energy rises.
 SCF Done:  E(RB3LYP) =  -323.473024247     A.U. after   10 cycles
            NFock= 10  Conv=0.70D-08     -V/T= 2.0046
 Calling FoFJK, ICntrl=      2127 FMM=F ISym2X=1 I1Cent= 0 IOpClX= 0 NMat=1 NMatS=1 NMatT=0.
 ***** Axes restored to original set *****
 -------------------------------------------------------------------
 Center     Atomic                   Forces (Hartrees/Bohr)
 Number     Number              X              Y              Z
 -------------------------------------------------------------------
      1        8          -0.000474884    0.000244574   -0.000000000
      2        7          -0.001153894   -0.000862181    0.000000000
      3        6           0.000749426    0.000098109   -0.000000000
      4        6           0.000667520    0.000651764   -0.000000000
      5        6           0.001125773    0.000161195   -0.000000000
      6        6          -0.000071183   -0.000298513    0.000000000
      7        6          -0.000143913   -0.000261650    0.000000000
      8        1          -0.000087910    0.000002905   -0.000000000
      9        1          -0.000441710    0.000036109   -0.000000000
     10        1          -0.000294873    0.000135730   -0.000000000
     11        1           0.000059676   -0.000005104    0.000000000
     12        1           0.000065971    0.000097061   -0.000000000
 -------------------------------------------------------------------
 Cartesian Forces:  Max     0.001153894 RMS     0.000394595

 GradGradGradGradGradGradGradGradGradGradGradGradGradGradGradGradGradGrad
 Berny optimization.
 Using GEDIIS/GDIIS optimizer.
 FormGI is forming the generalized inverse of G from B-inverse, IUseBI=4.
 Internal  Forces:  Max     0.000967431 RMS     0.000233346
 Search for a local minimum.
 Step number   4 out of a maximum of   64
 All quantities printed in internal units (Hartrees-Bohrs-Radians)
 Mixed Optimization -- En-DIIS/RFO-DIIS
 Swapping is turned off.
 Update second derivatives using D2CorX and points    1    2    3    4
 DE= -8.18D-05 DEPred=-6.97D-05 R= 1.17D+00
 TightC=F SS=  1.41D+00  RLast= 2.66D-02 DXNew= 8.2551D-01 7.9851D-02
 Trust test= 1.17D+00 RLast= 2.66D-02 DXMaxT set to 4.91D-01
 ITU=  1  1  1  0
     Eigenvalues ---    0.01256   0.01526   0.01857   0.01959   0.02065
     Eigenvalues ---    0.02138   0.02302   0.02495   0.02598   0.11999
     Eigenvalues ---    0.16000   0.16034   0.16194   0.16298   0.20642
     Eigenvalues ---    0.22444   0.23250   0.23827   0.31848   0.35142
     Eigenvalues ---    0.35607   0.35649   0.35778   0.36042   0.41164
     Eigenvalues ---    0.45140   0.46686   0.54830   0.58234   0.92120
 En-DIIS/RFO-DIIS IScMMF=        0 using points:     4    3
 RFO step:  Lambda=-5.49921650D-06.
 DidBck=F Rises=F RFO-DIIS coefs:    1.21674   -0.21674
 Iteration  1 RMS(Cart)=  0.00129315 RMS(Int)=  0.00000203
 Iteration  2 RMS(Cart)=  0.00000200 RMS(Int)=  0.00000029
 Iteration  3 RMS(Cart)=  0.00000000 RMS(Int)=  0.00000029
 ClnCor:  largest displacement from symmetrization is 3.47D-13 for atom    11.
 Variable       Old X    -DE/DX   Delta X   Delta X   Delta X     New X
                                 (Linear)    (Quad)   (Total)
    R1        2.31464  -0.00049  -0.00008  -0.00062  -0.00070   2.31394
    R2        2.66829   0.00097   0.00290   0.00046   0.00336   2.67165
    R3        2.57974  -0.00073  -0.00188  -0.00032  -0.00221   2.57753
    R4        1.91947  -0.00005   0.00015  -0.00023  -0.00009   1.91938
    R5        2.74520   0.00028  -0.00067   0.00099   0.00032   2.74552
    R6        2.57852  -0.00001   0.00068  -0.00019   0.00050   2.57902
    R7        2.05478  -0.00020  -0.00007  -0.00052  -0.00059   2.05419
    R8        2.57491  -0.00017   0.00097  -0.00084   0.00013   2.57503
    R9        2.05513   0.00000  -0.00013   0.00020   0.00008   2.05521
   R10        2.69715  -0.00009  -0.00165   0.00075  -0.00090   2.69625
   R11        2.05946  -0.00003  -0.00014   0.00010  -0.00005   2.05942
   R12        2.05150  -0.00007  -0.00002  -0.00017  -0.00019   2.05131
    A1        2.19115  -0.00015   0.00004  -0.00040  -0.00036   2.19079
    A2        1.99489   0.00015  -0.00131   0.00124  -0.00008   1.99481
    A3        2.09714   0.00000   0.00127  -0.00084   0.00044   2.09758
    A4        2.09590   0.00022  -0.00111   0.00113   0.00002   2.09592
    A5        2.21816  -0.00026   0.00158  -0.00170  -0.00012   2.21804
    A6        1.96912   0.00004  -0.00046   0.00057   0.00010   1.96923
    A7        2.12692  -0.00036  -0.00033  -0.00101  -0.00134   2.12558
    A8        2.02383   0.00059   0.00175   0.00196   0.00371   2.02754
    A9        2.13244  -0.00022  -0.00142  -0.00095  -0.00236   2.13007
   A10        2.10061   0.00016   0.00012   0.00039   0.00051   2.10112
   A11        2.02486   0.00025   0.00062   0.00161   0.00223   2.02708
   A12        2.15772  -0.00042  -0.00075  -0.00200  -0.00274   2.15498
   A13        2.11856   0.00023   0.00084   0.00049   0.00132   2.11988
   A14        2.08676  -0.00017  -0.00131  -0.00006  -0.00137   2.08539
   A15        2.07786  -0.00006   0.00047  -0.00042   0.00005   2.07791
   A16        2.06000   0.00007  -0.00020  -0.00003  -0.00024   2.05977
   A17        2.10023   0.00006  -0.00044   0.00087   0.00043   2.10066
   A18        2.12295  -0.00014   0.00064  -0.00083  -0.00019   2.12276
    D1        3.14159  -0.00000   0.00000   0.00000   0.00000   3.14159
    D2        0.00000  -0.00000   0.00000  -0.00000  -0.00000   0.00000
    D3        0.00000   0.00000   0.00000   0.00000  -0.00000   0.00000
    D4        3.14159  -0.00000   0.00000  -0.00000   0.00000   3.14159
    D5       -0.00000   0.00000   0.00000   0.00000   0.00000   0.00000
    D6        3.14159   0.00000   0.00000   0.00000   0.00000   3.14159
    D7        3.14159   0.00000   0.00000   0.00000   0.00000   3.14159
    D8        0.00000   0.00000   0.00000   0.00000   0.00000   0.00000
    D9        3.14159  -0.00000   0.00000  -0.00000   0.00000   3.14159
   D10       -0.00000  -0.00000   0.00000  -0.00000   0.00000   0.00000
   D11        0.00000   0.00000   0.00000   0.00000  -0.00000   0.00000
   D12        3.14159   0.00000   0.00000   0.00000   0.00000   3.14159
   D13       -0.00000  -0.00000   0.00000   0.00000   0.00000   0.00000
   D14        3.14159  -0.00000   0.00000   0.00000   0.00000   3.14159
   D15        3.14159  -0.00000   0.00000  -0.00000   0.00000   3.14159
   D16       -0.00000  -0.00000   0.00000  -0.00000   0.00000   0.00000
   D17       -0.00000   0.00000   0.00000   0.00000   0.00000   0.00000
   D18        3.14159  -0.00000   0.00000  -0.00000   0.00000   3.14159
   D19        3.14159  -0.00000   0.00000   0.00000   0.00000   3.14159
   D20       -0.00000  -0.00000   0.00000  -0.00000   0.00000   0.00000
   D21        0.00000  -0.00000   0.00000  -0.00000   0.00000   0.00000
   D22        3.14159  -0.00000   0.00000   0.00000   0.00000   3.14159
   D23        3.14159  -0.00000   0.00000  -0.00000   0.00000   3.14159
   D24        0.00000  -0.00000   0.00000  -0.00000  -0.00000   0.00000
         Item               Value     Threshold  Converged?
 Maximum Force            0.000967     0.000450     NO 
 RMS     Force            0.000233     0.000300     YES
 Maximum Displacement     0.004733     0.001800     NO 
 RMS     Displacement     0.001293     0.001200     NO 
 Predicted change in Energy=-5.561274D-06
 GradGradGradGradGradGradGradGradGradGradGradGradGradGradGradGradGradGrad

                          Input orientation:                          
 ---------------------------------------------------------------------
 Center     Atomic      Atomic             Coordinates (Angstroms)
 Number     Number       Type             X           Y           Z
 ---------------------------------------------------------------------
      1          8           0        2.293808   -0.094202    0.000000
      2          7           0        0.270062   -1.161111    0.000000
      3          6           0        1.073140    0.002430    0.000000
      4          6           0        0.291274    1.226972   -0.000000
      5          6           0       -1.093738   -1.182765    0.000000
      6          6           0       -1.073360    1.208597   -0.000000
      7          6           0       -1.801562   -0.018379   -0.000000
      8          1           0        0.794582   -2.030885    0.000000
      9          1           0        0.855563    2.156066   -0.000000
     10          1           0       -1.557382   -2.166555    0.000000
     11          1           0       -1.622464    2.149947   -0.000000
     12          1           0       -2.886922   -0.036116   -0.000000
 ---------------------------------------------------------------------
                    Distance matrix (angstroms):
                    1          2          3          4          5
     1  O    0.000000
     2  N    2.287758   0.000000
     3  C    1.224486   1.413775   0.000000
     4  C    2.399092   2.388177   1.452866   0.000000
[...]
 Vib (V=0)    4  0.110173D+01          0.042076          0.096883
 Vib (V=0)    5  0.107582D+01          0.031738          0.073079
 Vib (V=0)    6  0.105326D+01          0.022534          0.051886
 Electronic      0.100000D+01          0.000000          0.000000
 Translational   0.364162D+08          7.561295         17.410525
 Rotational      0.160507D+06          5.205494         11.986094
 ***** Axes restored to original set *****
 -------------------------------------------------------------------
 Center     Atomic                   Forces (Hartrees/Bohr)
 Number     Number              X              Y              Z
 -------------------------------------------------------------------
      1        8          -0.000197108    0.000037701   -0.000000000
      2        7          -0.000002218   -0.000079544    0.000000000
      3        6           0.000231262   -0.000040436    0.000000000
      4        6           0.000025018    0.000051208   -0.000000000
      5        6           0.000120904    0.000117188   -0.000000000
      6        6           0.000074410    0.000069725   -0.000000000
      7        6          -0.000076110   -0.000227759    0.000000000
      8        1          -0.000041815   -0.000002262    0.000000000
      9        1          -0.000061742    0.000000614   -0.000000000
     10        1          -0.000063283    0.000018438   -0.000000000
     11        1          -0.000019216    0.000000102   -0.000000000
     12        1           0.000009897    0.000055027   -0.000000000
 -------------------------------------------------------------------
 Cartesian Forces:  Max     0.000231262 RMS     0.000077243
 FormGI is forming the generalized inverse of G from B-inverse, IUseBI=4.

 GradGradGradGradGradGradGradGradGradGradGradGradGradGradGradGradGradGrad
 Berny optimization.
 Internal  Forces:  Max     0.000199453 RMS     0.000042115
 Search for a local minimum.
 Step number   1 out of a maximum of    2
 All quantities printed in internal units (Hartrees-Bohrs-Radians)
 Second derivative matrix not updated -- analytic derivatives used.
 ITU=  0
     Eigenvalues ---    0.00855   0.01149   0.01580   0.01731   0.01989
     Eigenvalues ---    0.02248   0.02671   0.03289   0.04736   0.10389
     Eigenvalues ---    0.10912   0.11279   0.12059   0.12669   0.17000
     Eigenvalues ---    0.19530   0.20380   0.23356   0.31073   0.31680
     Eigenvalues ---    0.35837   0.36424   0.36637   0.36896   0.37858
     Eigenvalues ---    0.41658   0.45559   0.51046   0.53735   0.80460
 Angle between quadratic step and forces=  34.20 degrees.
 Linear search not attempted -- first point.
 Iteration  1 RMS(Cart)=  0.00024103 RMS(Int)=  0.00000006
 Iteration  2 RMS(Cart)=  0.00000006 RMS(Int)=  0.00000000
 ClnCor:  largest displacement from symmetrization is 4.12D-12 for atom     8.
 Variable       Old X    -DE/DX   Delta X   Delta X   Delta X     New X
                                 (Linear)    (Quad)   (Total)
    R1        2.31394  -0.00020   0.00000  -0.00032  -0.00032   2.31363
    R2        2.67165   0.00007   0.00000   0.00027   0.00027   2.67191
    R3        2.57753  -0.00002   0.00000  -0.00007  -0.00007   2.57746
    R4        1.91938  -0.00002   0.00000  -0.00006  -0.00006   1.91932
    R5        2.74552   0.00006   0.00000   0.00024   0.00024   2.74576
    R6        2.57902  -0.00003   0.00000  -0.00008  -0.00008   2.57894
    R7        2.05419  -0.00003   0.00000  -0.00009  -0.00009   2.05410
    R8        2.57503  -0.00008   0.00000  -0.00021  -0.00021   2.57482
    R9        2.05521   0.00001   0.00000   0.00005   0.00005   2.05526
   R10        2.69625   0.00006   0.00000   0.00024   0.00024   2.69650
   R11        2.05942   0.00001   0.00000   0.00003   0.00003   2.05945
   R12        2.05131  -0.00001   0.00000  -0.00004  -0.00004   2.05126
    A1        2.19079  -0.00003   0.00000  -0.00016  -0.00016   2.19064
    A2        1.99481   0.00005   0.00000   0.00041   0.00041   1.99522
    A3        2.09758  -0.00002   0.00000  -0.00025  -0.00025   2.09733
    A4        2.09592   0.00003   0.00000   0.00014   0.00014   2.09606
    A5        2.21804  -0.00002   0.00000  -0.00008  -0.00008   2.21796
    A6        1.96923  -0.00001   0.00000  -0.00007  -0.00007   1.96916
    A7        2.12558  -0.00001   0.00000   0.00003   0.00003   2.12561
    A8        2.02754   0.00006   0.00000   0.00040   0.00040   2.02794
    A9        2.13007  -0.00005   0.00000  -0.00043  -0.00043   2.12964
   A10        2.10112   0.00006   0.00000   0.00032   0.00032   2.10144
   A11        2.02708   0.00004   0.00000   0.00037   0.00037   2.02746
   A12        2.15498  -0.00010   0.00000  -0.00069  -0.00069   2.15429
   A13        2.11988   0.00001   0.00000   0.00004   0.00004   2.11992
   A14        2.08539   0.00001   0.00000   0.00012   0.00012   2.08551
   A15        2.07791  -0.00002   0.00000  -0.00015  -0.00015   2.07776
   A16        2.05977  -0.00002   0.00000  -0.00016  -0.00016   2.05961
   A17        2.10066   0.00006   0.00000   0.00058   0.00058   2.10124
   A18        2.12276  -0.00005   0.00000  -0.00043  -0.00043   2.12233
    D1        3.14159   0.00000   0.00000  -0.00000   0.00000   3.14159
    D2       -0.00000  -0.00000   0.00000  -0.00000   0.00000   0.00000
    D3       -0.00000   0.00000   0.00000  -0.00000   0.00000   0.00000
    D4        3.14159  -0.00000   0.00000  -0.00000   0.00000   3.14159
    D5        0.00000  -0.00000   0.00000   0.00000   0.00000   0.00000
    D6        3.14159   0.00000   0.00000   0.00000   0.00000   3.14159
    D7        3.14159   0.00000   0.00000   0.00000   0.00000   3.14159
    D8        0.00000  -0.00000   0.00000   0.00000   0.00000   0.00000
    D9        3.14159  -0.00000   0.00000   0.00000   0.00000   3.14159
   D10       -0.00000  -0.00000   0.00000   0.00000   0.00000   0.00000
   D11        0.00000  -0.00000   0.00000   0.00000   0.00000   0.00000
   D12        3.14159   0.00000   0.00000   0.00000   0.00000   3.14159
   D13       -0.00000  -0.00000   0.00000  -0.00000   0.00000   0.00000
   D14        3.14159  -0.00000   0.00000  -0.00000   0.00000   3.14159
   D15        3.14159   0.00000   0.00000   0.00000   0.00000   3.14159
   D16       -0.00000   0.00000   0.00000  -0.00000   0.00000   0.00000
   D17       -0.00000  -0.00000   0.00000   0.00000   0.00000   0.00000
   D18        3.14159  -0.00000   0.00000  -0.00000   0.00000   3.14159
   D19        3.14159  -0.00000   0.00000   0.00000   0.00000   3.14159
   D20       -0.00000  -0.00000   0.00000  -0.00000   0.00000   0.00000
   D21        0.00000   0.00000   0.00000  -0.00000  -0.00000   0.00000
   D22        3.14159  -0.00000   0.00000  -0.00000   0.00000   3.14159
   D23        3.14159  -0.00000   0.00000   0.00000   0.00000   3.14159
   D24        0.00000  -0.00000   0.00000   0.00000   0.00000   0.00000
         Item               Value     Threshold  Converged?
 Maximum Force            0.000199     0.000450     YES
 RMS     Force            0.000042     0.000300     YES
 Maximum Displacement     0.000782     0.001800     YES
 RMS     Displacement     0.000241     0.001200     YES
 Predicted change in Energy=-1.933906D-07
 Optimization completed.
    -- Stationary point found.
                           ----------------------------
                           !   Optimized Parameters   !
                           ! (Angstroms and Degrees)  !
 --------------------------                            --------------------------
 ! Name  Definition              Value          Derivative Info.                !
 --------------------------------------------------------------------------------
 ! R1    R(1,3)                  1.2245         -DE/DX =   -0.0002              !
 ! R2    R(2,3)                  1.4138         -DE/DX =    0.0001              !
 ! R3    R(2,5)                  1.364          -DE/DX =    0.0                 !
 ! R4    R(2,8)                  1.0157         -DE/DX =    0.0                 !
 ! R5    R(3,4)                  1.4529         -DE/DX =    0.0001              !
 ! R6    R(4,6)                  1.3648         -DE/DX =    0.0                 !
 ! R7    R(4,9)                  1.087          -DE/DX =    0.0                 !
 ! R8    R(5,7)                  1.3626         -DE/DX =   -0.0001              !
 ! R9    R(5,10)                 1.0876         -DE/DX =    0.0                 !
 ! R10   R(6,7)                  1.4268         -DE/DX =    0.0001              !
 ! R11   R(6,11)                 1.0898         -DE/DX =    0.0                 !
 ! R12   R(7,12)                 1.0855         -DE/DX =    0.0                 !
 ! A1    A(3,2,5)              125.5232         -DE/DX =    0.0                 !
 ! A2    A(3,2,8)              114.2943         -DE/DX =    0.0001              !
 ! A3    A(5,2,8)              120.1825         -DE/DX =    0.0                 !
 ! A4    A(1,3,2)              120.0872         -DE/DX =    0.0                 !
 ! A5    A(1,3,4)              127.0844         -DE/DX =    0.0                 !
 ! A6    A(2,3,4)              112.8284         -DE/DX =    0.0                 !
 ! A7    A(3,4,6)              121.7866         -DE/DX =    0.0                 !
 ! A8    A(3,4,9)              116.1693         -DE/DX =    0.0001              !
 ! A9    A(6,4,9)              122.0441         -DE/DX =    0.0                 !
 ! A10   A(2,5,7)              120.3855         -DE/DX =    0.0001              !
 ! A11   A(2,5,10)             116.1434         -DE/DX =    0.0                 !
 ! A12   A(7,5,10)             123.4711         -DE/DX =   -0.0001              !
 ! A13   A(4,6,7)              121.4603         -DE/DX =    0.0                 !
 ! A14   A(4,6,11)             119.4842         -DE/DX =    0.0                 !
 ! A15   A(7,6,11)             119.0555         -DE/DX =    0.0                 !
 ! A16   A(5,7,6)              118.0159         -DE/DX =    0.0                 !
 ! A17   A(5,7,12)             120.359          -DE/DX =    0.0001              !
 ! A18   A(6,7,12)             121.6251         -DE/DX =    0.0                 !
 ! D1    D(5,2,3,1)            180.0            -DE/DX =    0.0                 !
 ! D2    D(5,2,3,4)              0.0            -DE/DX =    0.0                 !
 ! D3    D(8,2,3,1)              0.0            -DE/DX =    0.0                 !
 ! D4    D(8,2,3,4)            180.0            -DE/DX =    0.0                 !
 ! D5    D(3,2,5,7)              0.0            -DE/DX =    0.0                 !
 ! D6    D(3,2,5,10)           180.0            -DE/DX =    0.0                 !
 ! D7    D(8,2,5,7)            180.0            -DE/DX =    0.0                 !
 ! D8    D(8,2,5,10)             0.0            -DE/DX =    0.0                 !
 ! D9    D(1,3,4,6)            180.0            -DE/DX =    0.0                 !
 ! D10   D(1,3,4,9)              0.0            -DE/DX =    0.0                 !
 ! D11   D(2,3,4,6)              0.0            -DE/DX =    0.0                 !
 ! D12   D(2,3,4,9)            180.0            -DE/DX =    0.0                 !
 ! D13   D(3,4,6,7)              0.0            -DE/DX =    0.0                 !
 ! D14   D(3,4,6,11)           180.0            -DE/DX =    0.0                 !
 ! D15   D(9,4,6,7)            180.0            -DE/DX =    0.0                 !
 ! D16   D(9,4,6,11)             0.0            -DE/DX =    0.0                 !
 ! D17   D(2,5,7,6)              0.0            -DE/DX =    0.0                 !
 ! D18   D(2,5,7,12)           180.0            -DE/DX =    0.0                 !
 ! D19   D(10,5,7,6)           180.0            -DE/DX =    0.0                 !
 ! D20   D(10,5,7,12)            0.0            -DE/DX =    0.0                 !
 ! D21   D(4,6,7,5)              0.0            -DE/DX =    0.0                 !
 ! D22   D(4,6,7,12)           180.0            -DE/DX =    0.0                 !
 ! D23   D(11,6,7,5)           180.0            -DE/DX =    0.0                 !
 ! D24   D(11,6,7,12)            0.0            -DE/DX =    0.0                 !
 --------------------------------------------------------------------------------
 GradGradGradGradGradGradGradGradGradGradGradGradGradGradGradGradGradGrad

 1\1\GINC-Q1607\Freq\RB3LYP\Gen\C5H5N1O1\SC51754\26-Aug-2021\0\\#N Geom
 =AllCheck Guess=TCheck SCRF=Check GenChk RB3LYP/ChkBas Freq\\PY_pc-1_B
 3LYP_OPT_FREQ\\0,1\O,2.2938075808,-0.0942020127,0.\N,0.2700624588,-1.1
 611105194,0.\C,1.0731404038,0.002429834,0.\C,0.2912735751,1.2269722798
 ,0.\C,-1.0937380927,-1.182765063,0.\C,-1.0733603818,1.2085968888,0.\C,
 -1.8015624682,-0.0183791165,0.\H,0.7945820989,-2.0308847379,0.\H,0.855
 5627695,2.1560659144,0.\H,-1.5573822821,-2.1665550259,0.\H,-1.62246391
 62,2.1499471599,0.\H,-2.8869217458,-0.0361156016,0.\\Version=EM64L-G09
 RevE.01\State=1-A'\HF=-323.4730304\RMSD=3.540e-09\RMSF=7.724e-05\ZeroP
 oint=0.0936374\Thermal=0.0988905\Dipole=-1.5984727,-0.5373044,0.\Dipol
 eDeriv=-1.6726471,0.0186249,0.,0.2137157,-0.4331039,0.,0.,0.,-0.432796
 6,-0.7506689,0.4025703,0.,-0.4935946,-0.3733476,0.,0.,0.,-0.3034168,2.
 0281268,0.0214827,0.,-0.1265141,0.4447503,0.,0.,0.,0.3274732,-0.556427
 8,-0.0602631,0.,0.4732908,-0.056296,0.,0.,0.,-0.2031471,0.4168275,-0.6
 239201,0.,0.0134463,0.3148449,0.,0.,0.,0.0258952,0.4382351,0.1680634,0
 .,0.189967,0.3956969,0.,0.,0.,-0.0703665,-0.1311818,0.1278574,0.,-0.20
 29331,-0.5679891,0.,0.,0.,-0.2363905,0.1413894,-0.0239782,0.,-0.043244
 2,0.2450552,0.,0.,0.,0.2997662,0.0335742,-0.0507868,0.,-0.0278885,0.01
 17687,0.,0.,0.,0.155536,0.0455762,-0.0309117,0.,-0.0499625,-0.0114026,
 0.,0.,0.,0.1448598,0.0442522,0.0705449,0.,0.0694392,-0.0383092,0.,0.,0
 .,0.1282448,-0.0370559,-0.0192837,0.,-0.0157221,0.0683324,0.,0.,0.,0.1
 643424\Polar=83.526786,0.600246,69.330326,0.,0.,25.9820027\PG=CS [SG(C
 5H5N1O1)]\NImag=0\\0.77457783,-0.04515019,0.09484442,0.,0.,0.03381176,
 -0.06968597,-0.07188000,0.,0.75591974,-0.04202353,0.00927088,0.,-0.114
 08117,0.72656470,0.,0.,0.01944311,0.,0.,0.07656177,-0.64891845,0.05811
 431,0.,-0.13656529,-0.02095488,0.,0.93581584,0.06009049,-0.10566269,0.
 ,0.03016627,-0.19987800,0.,-0.09832266,0.52904422,0.,0.,-0.07391893,0.
 ,0.,-0.06041582,0.,0.,0.19850584,-0.05430383,0.04942355,0.,0.04726248,
 -0.00565417,0.,-0.13239787,0.02875885,0.,0.77589474,0.02759955,0.00583
 257,0.,-0.01181446,-0.04429436,0.,0.05235919,-0.21278863,0.,0.07567386
 ,0.65259430,0.,0.,0.02157676,0.,0.,0.00468783,0.,0.,-0.07704815,0.,0.,
 0.11677444,-0.00310083,0.01564467,0.,-0.32994406,0.02315611,0.,-0.0248
 9712,-0.07968187,0.,-0.03359591,0.01726037,0.,0.67312324,-0.00203033,-
 0.00977986,0.,-0.02892044,-0.14747471,0.,-0.02441557,0.03409919,0.,0.0
 2051849,-0.01286206,0.,-0.01790844,0.83146065,0.,0.,0.00504667,0.,0.,-
 0.04449479,0.,0.,-0.00330042,0.,0.,0.00075580,0.,0.,0.13659226,0.01153
 995,-0.00574503,0.,-0.03645092,-0.00490141,0.,-0.02541917,0.04657982,0
 .,-0.43307689,-0.02226657,0.,0.05054211,-0.01746430,0.,0.74811324,0.00
 753853,-0.01339583,0.,-0.03382264,-0.00732244,0.,0.03247629,0.04082275
 ,0.,0.01844240,-0.13219030,0.,0.01924794,-0.06033340,0.,-0.04712787,0.
 67795728,0.,0.,0.00422739,0.,0.,-0.00441728,0.,0.,-0.00034978,0.,0.,-0
 .05552664,0.,0.,0.00752460,0.,0.,0.14179899,-0.00452899,-0.00323925,0.
 ,-0.04824887,0.03537819,0.,0.00465137,0.01163057,0.,-0.02411183,-0.033
 38875,0.,-0.19815136,0.14836887,0.,-0.16480736,-0.09576044,0.,0.770951
 84,-0.00789408,0.01068973,0.,0.06550748,0.01306569,0.,-0.00133200,-0.0
 4982294,0.,-0.05467674,0.02114243,0.,0.10777036,-0.34512924,0.,-0.0465
 5720,-0.24198275,0.,-0.05718795,0.67390827,0.,0.,-0.00011600,0.,0.,0.0
 1172691,0.,0.,-0.00686052,0.,0.,0.00724051,0.,0.,-0.06325513,0.,0.,-0.
 06107956,0.,0.,0.11487496,-0.00214811,0.00442301,0.,-0.16350370,0.1571
 6741,0.,0.02058729,-0.01691705,0.,-0.00315828,-0.00323805,0.,-0.012457
 38,0.03177919,0.,0.00067746,0.00009985,0.,-0.00555331,-0.00410277,0.,0
 .16468280,0.00038122,0.00489360,0.,0.15899697,-0.34535812,0.,0.0210661
 3,-0.02170925,0.,-0.00370711,-0.00419426,0.,-0.00217186,0.00737290,0.,
 -0.00261272,-0.00129491,0.,-0.00272237,0.00456123,0.,-0.16925744,0.355
 27663,0.,0.,-0.00475336,0.,0.,-0.01735386,0.,0.,0.00379490,0.,0.,0.004
 54741,0.,0.,-0.00519719,0.,0.,-0.00076909,0.,0.,0.00495764,0.,0.,0.016
 70296,0.00079251,-0.00170824,0.,-0.00124260,0.00422952,0.,0.01131309,0
 .01456526,0.,-0.13202211,-0.12866432,0.,-0.00120309,0.00055788,0.,-0.0
 1071976,-0.02745743,0.,-0.00461949,0.00188786,0.,0.00064982,0.00092825
 ,0.,0.13640815,0.00110162,0.00274611,0.,0.00270569,-0.00487774,0.,-0.0
 1882588,-0.01585221,0.,-0.12649479,-0.27314039,0.,0.00254208,-0.000124
 50,0.,0.00218051,0.00514957,0.,0.00093555,0.00245890,0.,-0.00096180,-0
 .00100401,0.,0.13704416,0.28351732,0.,0.,-0.00218581,0.,0.,0.00476577,
 0.,0.,0.00280353,0.,0.,-0.03387441,0.,0.,-0.00059609,0.,0.,0.00303930,
 0.,0.,0.00931601,0.,0.,-0.00054445,0.,0.,0.02389870,-0.00276704,-0.001
 83996,0.,-0.01896084,-0.03562709,0.,-0.00051610,0.00708332,0.,0.000165
 10,-0.00022357,0.,-0.10736564,-0.10333758,0.,-0.00201041,0.00270849,0.
 ,0.01304099,0.01425365,0.,0.00056161,-0.00052593,0.,0.00011952,-0.0001
 4810,0.,0.11655845,-0.00017283,-0.00017805,0.,0.00131747,0.00425074,0.
 ,0.00181553,0.00243192,0.,0.00061204,0.00057597,0.,-0.11008461,-0.2988
 8788,0.,0.00419743,-0.00300593,0.,-0.01388778,-0.01478950,0.,-0.000210
 49,0.00108011,0.,-0.00009336,-0.00000695,0.,0.11710255,0.30870620,0.,0
 .,-0.00023600,0.,0.,0.00265291,0.,0.,0.00504460,0.,0.,0.00003748,0.,0.
 ,-0.03678036,0.,0.,0.00795124,0.,0.,0.00654510,0.,0.,-0.00252281,0.,0.
 ,-0.00125124,0.,0.,0.02386733,-0.00141706,0.00187167,0.,-0.00009843,0.
 00035759,0.,-0.00425181,-0.00364228,0.,-0.01130016,0.02917648,0.,-0.00
 147034,-0.00351139,0.,-0.12953594,0.12096628,0.,0.01203304,-0.01445564
 ,0.,0.00002553,0.00002647,0.,0.00099612,-0.00025857,0.,0.00057314,-0.0
 0074548,0.,0.13381131,0.00053197,0.00001061,0.,-0.00051902,0.00105491,
 0.,-0.00180862,0.00127697,0.,-0.00137478,0.00429758,0.,-0.00405719,-0.
 00390511,0.,0.12135565,-0.26936838,0.,0.01547066,-0.01663127,0.,0.0000
 3613,0.00006082,0.,-0.00004725,0.00093818,0.,0.00081269,-0.00092888,0.
 ,-0.13035131,0.28217567,0.,0.,-0.00239614,0.,0.,-0.00075484,0.,0.,0.01
 213422,0.,0.,0.00700844,0.,0.,0.00458973,0.,0.,-0.04229838,0.,0.,0.004
 29637,0.,0.,-0.00070399,0.,0.,-0.00593549,0.,0.,-0.00039722,0.,0.,0.02
 663152,-0.00004002,0.00008544,0.,0.00151845,0.00295342,0.,0.00059823,-
 0.00031072,0.,0.00064455,-0.00247374,0.,-0.01147960,-0.00363638,0.,-0.
 00885231,0.00268860,0.,-0.35065602,-0.00321297,0.,-0.00036373,-0.00040
 161,0.,-0.00047216,0.00017953,0.,0.00060121,0.00014953,0.,0.00063461,-
 0.00004894,0.,0.36786678,0.00002757,0.00072850,0.,0.00234386,-0.005001
 55,0.,-0.00017185,-0.00196133,0.,-0.00152162,-0.00497286,0.,0.02828244
 ,0.00556402,0.,-0.02763830,0.00496431,0.,-0.00559730,-0.05747057,0.,0.
 00118201,0.00031525,0.,-0.00124235,0.00019571,0.,-0.00025848,0.0007522
 5,0.,0.00056618,0.00101889,0.,0.00402783,0.05586737,0.,0.,-0.00049945,
 0.,0.,0.00759830,0.,0.,-0.00038948,0.,0.,0.00382055,0.,0.,-0.00088509,
 0.,0.,-0.00010078,0.,0.,-0.02764629,0.,0.,0.00184183,0.,0.,0.00056419,
 0.,0.,-0.00491103,0.,0.,-0.00217420,0.,0.,0.02278146\\0.00019711,-0.00
 003770,0.,0.00000222,0.00007954,0.,-0.00023126,0.00004044,0.,-0.000025
 02,-0.00005121,0.,-0.00012090,-0.00011719,0.,-0.00007441,-0.00006972,0
 .,0.00007611,0.00022776,0.,0.00004182,0.00000226,0.,0.00006174,-0.0000
 0061,0.,0.00006328,-0.00001844,0.,0.00001922,-0.00000010,0.,-0.0000099
 0,-0.00005503,0.\\\@


 CHINESE FORTUNE COOKIE OF JAN 1 1967 SAY....
 ALL THINGS ARE DIFFICULT BEFORE THEY ARE EASY.
 WE LEARN SO LITTLE AND FORGET SO MUCH.
 YOU WILL OVERCOME OBSTACLES TO ACHIEVE SUCCESS.
 AH SO.
 Job cpu time:       0 days  0 hours 11 minutes 45.7 seconds.
 File lengths (MBytes):  RWF=     25 Int=      0 D2E=      0 Chk=      2 Scr=      1
 Normal termination of Gaussian 09 at Thu Aug 26 16:34:19 2021.
