 Entering Gaussian System, Link 0=g09
 AtFile(1): pc-2.gbs
            -H     0
            S    4   1.00
                  0.754230D+02           0.240650D-02
                  0.113500D+02           0.184870D-01
                  0.259930D+01           0.897420D-01
                  0.735130D+00           0.281110D+00
            S    1   1.00
                  0.231670D+00           0.100000D+01
            S    1   1.00
                  0.741470D-01           0.100000D+01
            P    1   1.00
                  0.160000D+01           0.100000D+01
            P    1   1.00
                  0.450000D+00           0.100000D+01
            D    1   1.00
                  0.125000D+01           0.100000D+01
            ****
            -C     0
            S    7   1.00
                  0.785710D+04           0.568250D-03
                  0.117870D+04           0.439150D-02
                  0.268320D+03           0.225040D-01
                  0.759480D+02           0.866530D-01
                  0.245590D+02           0.244050D+00
                  0.862120D+01           0.441480D+00
                  0.312780D+01           0.353320D+00
            S    7   1.00
                  0.117870D+04          -0.594920D-06
                  0.268320D+03          -0.627480D-04
                  0.759480D+02          -0.757730D-03
                  0.245590D+02          -0.733080D-02
                  0.862120D+01          -0.389320D-01
                  0.312780D+01          -0.889080D-01
                  0.822020D+00           0.216890D+00
            S    1   1.00
                  0.330170D+00           0.100000D+01
            S    1   1.00
                  0.114630D+00           0.100000D+01
            P    4   1.00
                  0.337750D+02           0.602940D-02
                  0.767660D+01           0.432280D-01
                  0.223570D+01           0.163010D+00
                  0.764470D+00           0.365040D+00
            P    1   1.00
                  0.262320D+00           0.100000D+01
            P    1   1.00
                  0.846380D-01           0.100000D+01
            D    1   1.00
                  0.140000D+01           0.100000D+01
            D    1   1.00
                  0.450000D+00           0.100000D+01
            F    1   1.00
                  0.950000D+00           0.100000D+01
            ****
            -N     0
            S    7   1.00
                  0.111010D+05           0.545700D-03
                  0.166530D+04           0.421810D-02
                  0.379080D+03           0.216450D-01
                  0.107300D+03           0.837760D-01
                  0.347470D+02           0.238810D+00
                  0.122490D+02           0.439940D+00
                  0.447430D+01           0.363640D+00
            S    7   1.00
                  0.166530D+04          -0.150060D-05
                  0.379080D+03          -0.587530D-04
                  0.107300D+03          -0.774530D-03
                  0.347470D+02          -0.721610D-02
                  0.122490D+02          -0.393380D-01
                  0.447430D+01          -0.906110D-01
                  0.124040D+01           0.198820D+00
            S    1   1.00
                  0.487430D+00           0.100000D+01
            S    1   1.00
                  0.164840D+00           0.100000D+01
            P    4   1.00
                  0.479340D+02           0.617060D-02
                  0.109990D+02           0.442600D-01
                  0.324720D+01           0.168250D+00
                  0.111140D+01           0.368480D+00
            P    1   1.00
                  0.379880D+00           0.100000D+01
            P    1   1.00
                  0.120680D+00           0.100000D+01
            D    1   1.00
                  0.180000D+01           0.100000D+01
            D    1   1.00
                  0.550000D+00           0.100000D+01
            F    1   1.00
                  0.102000D+01           0.100000D+01
            ****
            -O     0
            S    7   1.00
                  0.147820D+05           0.535190D-03
                  0.221730D+04           0.413750D-02
                  0.504740D+03           0.212450D-01
                  0.142870D+03           0.824530D-01
                  0.463000D+02           0.236710D+00
                  0.163370D+02           0.440390D+00
                  0.598280D+01           0.364650D+00
            S    7   1.00
                  0.221730D+04          -0.192750D-05
                  0.504740D+03          -0.579640D-04
                  0.142870D+03          -0.794940D-03
                  0.463000D+02          -0.731250D-02
                  0.163370D+02          -0.405740D-01
                  0.598280D+01          -0.915940D-01
                  0.167180D+01           0.209400D+00
            S    1   1.00
                  0.646620D+00           0.100000D+01
            S    1   1.00
                  0.216690D+00           0.100000D+01
            P    4   1.00
                  0.604240D+02           0.689490D-02
                  0.139350D+02           0.490050D-01
                  0.415310D+01           0.182550D+00
                  0.141580D+01           0.376330D+00
            P    1   1.00
                  0.475490D+00           0.100000D+01
            P    1   1.00
                  0.145290D+00           0.100000D+01
            D    1   1.00
                  0.220000D+01           0.100000D+01
            D    1   1.00
                  0.650000D+00           0.100000D+01
            F    1   1.00
                  0.110000D+01           0.100000D+01
            ****
 Initial command:
 /gpfs/share/home/1801110325/software/g09e01/l1.exe "./Gau-31994.inp" -scrdir="./"
 Entering Link 1 = /gpfs/share/home/1801110325/software/g09e01/l1.exe PID=     31996.
  
 Copyright (c) 1988,1990,1992,1993,1995,1998,2003,2009,2015,
            Gaussian, Inc.  All Rights Reserved.
  
 This is part of the Gaussian(R) 09 program.  It is based on
 the Gaussian(R) 03 system (copyright 2003, Gaussian, Inc.),
 the Gaussian(R) 98 system (copyright 1998, Gaussian, Inc.),
 the Gaussian(R) 94 system (copyright 1995, Gaussian, Inc.),
 the Gaussian 92(TM) system (copyright 1992, Gaussian, Inc.),
 the Gaussian 90(TM) system (copyright 1990, Gaussian, Inc.),
 the Gaussian 88(TM) system (copyright 1988, Gaussian, Inc.),
 the Gaussian 86(TM) system (copyright 1986, Carnegie Mellon
 University), and the Gaussian 82(TM) system (copyright 1983,
 Carnegie Mellon University). Gaussian is a federally registered
 trademark of Gaussian, Inc.
  
 This software contains proprietary and confidential information,
 including trade secrets, belonging to Gaussian, Inc.
  
 This software is provided under written license and may be
 used, copied, transmitted, or stored only in accord with that
 written license.
  
 The following legend is applicable only to US Government
 contracts under FAR:
  
                    RESTRICTED RIGHTS LEGEND
  
 Use, reproduction and disclosure by the US Government is
 subject to restrictions as set forth in subparagraphs (a)
 and (c) of the Commercial Computer Software - Restricted
 Rights clause in FAR 52.227-19.
  
 Gaussian, Inc.
 340 Quinnipiac St., Bldg. 40, Wallingford CT 06492
  
  
 ---------------------------------------------------------------
 Warning -- This program may not be used in any manner that
 competes with the business of Gaussian, Inc. or will provide
 assistance to any competitor of Gaussian, Inc.  The licensee
 of this program is prohibited from giving any competitor of
 Gaussian, Inc. access to this program.  By using this program,
 the user acknowledges that Gaussian, Inc. is engaged in the
 business of creating and licensing software in the field of
 computational chemistry and represents and warrants to the
 licensee that it is not a competitor of Gaussian, Inc. and that
 it will not use this program in any manner prohibited above.
 ---------------------------------------------------------------
  

 Cite this work as:
 Gaussian 09, Revision E.01,
 M. J. Frisch, G. W. Trucks, H. B. Schlegel, G. E. Scuseria, 
 M. A. Robb, J. R. Cheeseman, G. Scalmani, V. Barone, B. Mennucci, 
 G. A. Petersson, H. Nakatsuji, M. Caricato, X. Li, H. P. Hratchian, 
 A. F. Izmaylov, J. Bloino, G. Zheng, J. L. Sonnenberg, M. Hada, 
 M. Ehara, K. Toyota, R. Fukuda, J. Hasegawa, M. Ishida, T. Nakajima, 
 Y. Honda, O. Kitao, H. Nakai, T. Vreven, J. A. Montgomery, Jr., 
 J. E. Peralta, F. Ogliaro, M. Bearpark, J. J. Heyd, E. Brothers, 
 K. N. Kudin, V. N. Staroverov, T. Keith, R. Kobayashi, J. Normand, 
 K. Raghavachari, A. Rendell, J. C. Burant, S. S. Iyengar, J. Tomasi, 
 M. Cossi, N. Rega, J. M. Millam, M. Klene, J. E. Knox, J. B. Cross, 
 V. Bakken, C. Adamo, J. Jaramillo, R. Gomperts, R. E. Stratmann, 
 O. Yazyev, A. J. Austin, R. Cammi, C. Pomelli, J. W. Ochterski, 
 R. L. Martin, K. Morokuma, V. G. Zakrzewski, G. A. Voth, 
 P. Salvador, J. J. Dannenberg, S. Dapprich, A. D. Daniels, 
 O. Farkas, J. B. Foresman, J. V. Ortiz, J. Cioslowski, 
 and D. J. Fox, Gaussian, Inc., Wallingford CT, 2013.
 
 ******************************************
 Gaussian 09:  EM64L-G09RevE.01 30-Nov-2015
                 2-Sep-2021 
 ******************************************
 %nprocshared=6
 Will use up to    6 processors via shared memory.
 %mem=10GB
 %chk=PY_TPSSh_PC2_OPT_FREQ.chk
 ----------------------------------------------------------
 #p opt freq TPSSh/gen SCF(novaracc,noincfock) int=acc2e=12
 ----------------------------------------------------------
 1/14=-1,18=20,19=15,26=3,38=1/1,3;
 2/9=110,12=2,17=6,18=5,40=1/2;
 3/5=7,11=2,16=1,25=1,30=1,71=1,74=-35/1,2,3;
 4//1;
 5/5=100002,38=1,87=12/2;
 6/7=2,8=2,9=2,10=2,28=1/1;
 7/87=12/1,2,3,16;
 1/14=-1,18=20,19=15,26=3/3(2);
 2/9=110/2;
 99//99;
 2/9=110/2;
 3/5=7,6=1,11=2,16=1,25=1,30=1,71=1,74=-35,82=7/1,2,3;
 4/5=5,16=3,69=1/1;
 5/5=100002,38=1,87=12/2;
 7/87=12/1,2,3,16;
 1/14=-1,18=20,19=15,26=3/3(-5);
 2/9=110/2;
 6/7=2,8=2,9=2,10=2,19=2,28=1/1;
 99/9=1/99;
 Leave Link    1 at Thu Sep  2 22:19:26 2021, MaxMem=  1342177280 cpu:         7.0
 (Enter /gpfs/share/home/1801110325/software/g09e01/l101.exe)
 ---------------------
 PY_TPSSh_PC2_OPT_FREQ
 ---------------------
 Symbolic Z-matrix:
 Charge =  0 Multiplicity = 1
 O                    -0.1303    2.2679    0. 
 N                    -1.13214   0.23327   0. 
 C                     0.        1.06201   0. 
 C                     1.23795   0.32011   0. 
 C                    -1.11441  -1.12189   0. 
 C                     1.25607  -1.03234   0. 
 C                     0.05856  -1.79159   0. 
 H                    -2.00762   0.73274   0. 
 H                     2.14422   0.90837   0. 
 H                    -2.07697  -1.61403   0. 
 H                     2.20675  -1.5513    0. 
 H                     0.072    -2.86964   0. 
 
 NAtoms=     12 NQM=       12 NQMF=       0 NMMI=      0 NMMIF=      0
                NMic=       0 NMicF=      0.
                    Isotopes and Nuclear Properties:
 (Nuclear quadrupole moments (NQMom) in fm**2, nuclear magnetic moments (NMagM)
  in nuclear magnetons)

  Atom         1           2           3           4           5           6           7           8           9          10
 IAtWgt=          16          14          12          12          12          12          12           1           1           1
 AtmWgt=  15.9949146  14.0030740  12.0000000  12.0000000  12.0000000  12.0000000  12.0000000   1.0078250   1.0078250   1.0078250
 NucSpn=           0           2           0           0           0           0           0           1           1           1
 AtZEff=   0.0000000   0.0000000   0.0000000   0.0000000   0.0000000   0.0000000   0.0000000   0.0000000   0.0000000   0.0000000
 NQMom=    0.0000000   2.0440000   0.0000000   0.0000000   0.0000000   0.0000000   0.0000000   0.0000000   0.0000000   0.0000000
 NMagM=    0.0000000   0.4037610   0.0000000   0.0000000   0.0000000   0.0000000   0.0000000   2.7928460   2.7928460   2.7928460
 AtZNuc=   8.0000000   7.0000000   6.0000000   6.0000000   6.0000000   6.0000000   6.0000000   1.0000000   1.0000000   1.0000000

  Atom        11          12
 IAtWgt=           1           1
 AtmWgt=   1.0078250   1.0078250
 NucSpn=           1           1
 AtZEff=   0.0000000   0.0000000
 NQMom=    0.0000000   0.0000000
 NMagM=    2.7928460   2.7928460
 AtZNuc=   1.0000000   1.0000000
 Leave Link  101 at Thu Sep  2 22:19:27 2021, MaxMem=  1342177280 cpu:         1.4
 (Enter /gpfs/share/home/1801110325/software/g09e01/l103.exe)

 GradGradGradGradGradGradGradGradGradGradGradGradGradGradGradGradGradGrad
 Berny optimization.
 Initialization pass.
                           ----------------------------
                           !    Initial Parameters    !
                           ! (Angstroms and Degrees)  !
 --------------------------                            --------------------------
 ! Name  Definition              Value          Derivative Info.                !
 --------------------------------------------------------------------------------
 ! R1    R(1,3)                  1.2129         estimate D2E/DX2                !
 ! R2    R(2,3)                  1.403          estimate D2E/DX2                !
 ! R3    R(2,5)                  1.3553         estimate D2E/DX2                !
 ! R4    R(2,8)                  1.0079         estimate D2E/DX2                !
 ! R5    R(3,4)                  1.4432         estimate D2E/DX2                !
 ! R6    R(4,6)                  1.3526         estimate D2E/DX2                !
 ! R7    R(4,9)                  1.0805         estimate D2E/DX2                !
 ! R8    R(5,7)                  1.3507         estimate D2E/DX2                !
 ! R9    R(5,10)                 1.0811         estimate D2E/DX2                !
 ! R10   R(6,7)                  1.4179         estimate D2E/DX2                !
 ! R11   R(6,11)                 1.0831         estimate D2E/DX2                !
 ! R12   R(7,12)                 1.0781         estimate D2E/DX2                !
 ! A1    A(3,2,5)              125.4546         estimate D2E/DX2                !
 ! A2    A(3,2,8)              114.0905         estimate D2E/DX2                !
 ! A3    A(5,2,8)              120.4549         estimate D2E/DX2                !
 ! A4    A(1,3,2)              120.0371         estimate D2E/DX2                !
 ! A5    A(1,3,4)              127.1013         estimate D2E/DX2                !
 ! A6    A(2,3,4)              112.8616         estimate D2E/DX2                !
 ! A7    A(3,4,6)              121.7019         estimate D2E/DX2                !
 ! A8    A(3,4,9)              116.0785         estimate D2E/DX2                !
 ! A9    A(6,4,9)              122.2196         estimate D2E/DX2                !
 ! A10   A(2,5,7)              120.4739         estimate D2E/DX2                !
 ! A11   A(2,5,10)             116.3305         estimate D2E/DX2                !
 ! A12   A(7,5,10)             123.1956         estimate D2E/DX2                !
 ! A13   A(4,6,7)              121.6078         estimate D2E/DX2                !
 ! A14   A(4,6,11)             119.3971         estimate D2E/DX2                !
 ! A15   A(7,6,11)             118.9951         estimate D2E/DX2                !
 ! A16   A(5,7,6)              117.9002         estimate D2E/DX2                !
 ! A17   A(5,7,12)             120.4381         estimate D2E/DX2                !
 ! A18   A(6,7,12)             121.6617         estimate D2E/DX2                !
 ! D1    D(5,2,3,1)            180.0            estimate D2E/DX2                !
 ! D2    D(5,2,3,4)              0.0            estimate D2E/DX2                !
 ! D3    D(8,2,3,1)              0.0            estimate D2E/DX2                !
 ! D4    D(8,2,3,4)            180.0            estimate D2E/DX2                !
 ! D5    D(3,2,5,7)              0.0            estimate D2E/DX2                !
 ! D6    D(3,2,5,10)           180.0            estimate D2E/DX2                !
 ! D7    D(8,2,5,7)            180.0            estimate D2E/DX2                !
 ! D8    D(8,2,5,10)             0.0            estimate D2E/DX2                !
 ! D9    D(1,3,4,6)            180.0            estimate D2E/DX2                !
 ! D10   D(1,3,4,9)              0.0            estimate D2E/DX2                !
 ! D11   D(2,3,4,6)              0.0            estimate D2E/DX2                !
 ! D12   D(2,3,4,9)            180.0            estimate D2E/DX2                !
 ! D13   D(3,4,6,7)              0.0            estimate D2E/DX2                !
 ! D14   D(3,4,6,11)           180.0            estimate D2E/DX2                !
 ! D15   D(9,4,6,7)            180.0            estimate D2E/DX2                !
 ! D16   D(9,4,6,11)             0.0            estimate D2E/DX2                !
 ! D17   D(2,5,7,6)              0.0            estimate D2E/DX2                !
 ! D18   D(2,5,7,12)           180.0            estimate D2E/DX2                !
 ! D19   D(10,5,7,6)           180.0            estimate D2E/DX2                !
 ! D20   D(10,5,7,12)            0.0            estimate D2E/DX2                !
 ! D21   D(4,6,7,5)              0.0            estimate D2E/DX2                !
 ! D22   D(4,6,7,12)           180.0            estimate D2E/DX2                !
 ! D23   D(11,6,7,5)           180.0            estimate D2E/DX2                !
 ! D24   D(11,6,7,12)            0.0            estimate D2E/DX2                !
 --------------------------------------------------------------------------------
 Trust Radius=3.00D-01 FncErr=1.00D-07 GrdErr=1.00D-06
 Number of steps in this run=     64 maximum allowed number of steps=    100.
 GradGradGradGradGradGradGradGradGradGradGradGradGradGradGradGradGradGrad

 Leave Link  103 at Thu Sep  2 22:19:27 2021, MaxMem=  1342177280 cpu:         0.1
 (Enter /gpfs/share/home/1801110325/software/g09e01/l202.exe)
                          Input orientation:                          
 ---------------------------------------------------------------------
 Center     Atomic      Atomic             Coordinates (Angstroms)
 Number     Number       Type             X           Y           Z
 ---------------------------------------------------------------------
      1          8           0       -0.130304    2.267896    0.000000
      2          7           0       -1.132141    0.233271    0.000000
      3          6           0        0.000000    1.062005    0.000000
      4          6           0        1.237945    0.320111    0.000000
      5          6           0       -1.114407   -1.121885    0.000000
      6          6           0        1.256071   -1.032342    0.000000
      7          6           0        0.058564   -1.791590    0.000000
      8          1           0       -2.007624    0.732742    0.000000
      9          1           0        2.144218    0.908369    0.000000
     10          1           0       -2.076968   -1.614034    0.000000
     11          1           0        2.206750   -1.551299    0.000000
     12          1           0        0.071999   -2.869636    0.000000
 ---------------------------------------------------------------------
                    Distance matrix (angstroms):
                    1          2          3          4          5
     1  O    0.000000
     2  N    2.267901   0.000000
     3  C    1.212911   1.403048   0.000000
     4  C    2.380330   2.371676   1.443231   0.000000
     5  C    3.529741   1.355272   2.451791   2.759151   0.000000
     6  C    3.579610   2.702838   2.442131   1.352574   2.372169
     7  C    4.063877   2.349008   2.854196   2.418723   1.350691
     8  H    2.425083   1.007939   2.034445   3.271694   2.058514
     9  H    2.649861   3.345188   2.149715   1.080453   3.839345
    10  H    4.342681   2.074906   3.387474   3.837912   1.081080
    11  H    4.477507   3.785879   3.420395   2.107311   3.348803
    12  H    5.141514   3.328361   3.932300   3.396162   2.112390
                    6          7          8          9         10
     6  C    0.000000
     7  C    1.417914   0.000000
     8  H    3.710421   3.262114   0.000000
     9  H    2.134283   3.411705   4.155555   0.000000
    10  H    3.383418   2.142901   2.347800   4.917411   0.000000
    11  H    1.083101   2.161583   4.793516   2.460463   4.284177
    12  H    2.185790   1.078130   4.159562   4.308992   2.488894
                   11         12
    11  H    0.000000
    12  H    2.509019   0.000000
 Stoichiometry    C5H5NO
 Framework group  CS[SG(C5H5NO)]
 Deg. of freedom    21
 Full point group                 CS      NOp   2
 Largest Abelian subgroup         CS      NOp   2
 Largest concise Abelian subgroup C1      NOp   1
                         Standard orientation:                         
 ---------------------------------------------------------------------
 Center     Atomic      Atomic             Coordinates (Angstroms)
 Number     Number       Type             X           Y           Z
 ---------------------------------------------------------------------
      1          8           0       -0.130304    2.267896    0.000000
      2          7           0       -1.132141    0.233271    0.000000
      3          6           0       -0.000000    1.062005    0.000000
      4          6           0        1.237945    0.320111   -0.000000
      5          6           0       -1.114407   -1.121885    0.000000
      6          6           0        1.256071   -1.032342   -0.000000
      7          6           0        0.058564   -1.791590   -0.000000
      8          1           0       -2.007624    0.732742    0.000000
      9          1           0        2.144218    0.908369   -0.000000
     10          1           0       -2.076968   -1.614034    0.000000
     11          1           0        2.206750   -1.551299   -0.000000
     12          1           0        0.071999   -2.869636   -0.000000
 ---------------------------------------------------------------------
 Rotational constants (GHZ):      5.7341355      2.8228169      1.8916098
 Leave Link  202 at Thu Sep  2 22:19:27 2021, MaxMem=  1342177280 cpu:         0.1
 (Enter /gpfs/share/home/1801110325/software/g09e01/l301.exe)
 General basis read from cards:  (5D, 7F)
 Centers:       8      9     10     11     12
 S 4 1.00
     Exponent=  7.5423000000D+01 Coefficients=  2.4065000000D-03
     Exponent=  1.1350000000D+01 Coefficients=  1.8487000000D-02
     Exponent=  2.5993000000D+00 Coefficients=  8.9742000000D-02
     Exponent=  7.3513000000D-01 Coefficients=  2.8111000000D-01
 S 1 1.00
     Exponent=  2.3167000000D-01 Coefficients=  1.0000000000D+00
 S 1 1.00
     Exponent=  7.4147000000D-02 Coefficients=  1.0000000000D+00
 P 1 1.00
     Exponent=  1.6000000000D+00 Coefficients=  1.0000000000D+00
 P 1 1.00
     Exponent=  4.5000000000D-01 Coefficients=  1.0000000000D+00
 D 1 1.00
     Exponent=  1.2500000000D+00 Coefficients=  1.0000000000D+00
 ****
 Centers:       3      4      5      6      7
 S 7 1.00
     Exponent=  7.8571000000D+03 Coefficients=  5.6825000000D-04
     Exponent=  1.1787000000D+03 Coefficients=  4.3915000000D-03
     Exponent=  2.6832000000D+02 Coefficients=  2.2504000000D-02
     Exponent=  7.5948000000D+01 Coefficients=  8.6653000000D-02
     Exponent=  2.4559000000D+01 Coefficients=  2.4405000000D-01
     Exponent=  8.6212000000D+00 Coefficients=  4.4148000000D-01
     Exponent=  3.1278000000D+00 Coefficients=  3.5332000000D-01
 S 7 1.00
     Exponent=  1.1787000000D+03 Coefficients= -5.9492000000D-07
     Exponent=  2.6832000000D+02 Coefficients= -6.2748000000D-05
     Exponent=  7.5948000000D+01 Coefficients= -7.5773000000D-04
     Exponent=  2.4559000000D+01 Coefficients= -7.3308000000D-03
     Exponent=  8.6212000000D+00 Coefficients= -3.8932000000D-02
     Exponent=  3.1278000000D+00 Coefficients= -8.8908000000D-02
     Exponent=  8.2202000000D-01 Coefficients=  2.1689000000D-01
 S 1 1.00
     Exponent=  3.3017000000D-01 Coefficients=  1.0000000000D+00
 S 1 1.00
     Exponent=  1.1463000000D-01 Coefficients=  1.0000000000D+00
 P 4 1.00
     Exponent=  3.3775000000D+01 Coefficients=  6.0294000000D-03
     Exponent=  7.6766000000D+00 Coefficients=  4.3228000000D-02
     Exponent=  2.2357000000D+00 Coefficients=  1.6301000000D-01
     Exponent=  7.6447000000D-01 Coefficients=  3.6504000000D-01
 P 1 1.00
     Exponent=  2.6232000000D-01 Coefficients=  1.0000000000D+00
 P 1 1.00
     Exponent=  8.4638000000D-02 Coefficients=  1.0000000000D+00
 D 1 1.00
     Exponent=  1.4000000000D+00 Coefficients=  1.0000000000D+00
 D 1 1.00
     Exponent=  4.5000000000D-01 Coefficients=  1.0000000000D+00
 F 1 1.00
     Exponent=  9.5000000000D-01 Coefficients=  1.0000000000D+00
 ****
 Centers:       2
 S 7 1.00
     Exponent=  1.1101000000D+04 Coefficients=  5.4570000000D-04
     Exponent=  1.6653000000D+03 Coefficients=  4.2181000000D-03
     Exponent=  3.7908000000D+02 Coefficients=  2.1645000000D-02
     Exponent=  1.0730000000D+02 Coefficients=  8.3776000000D-02
     Exponent=  3.4747000000D+01 Coefficients=  2.3881000000D-01
     Exponent=  1.2249000000D+01 Coefficients=  4.3994000000D-01
     Exponent=  4.4743000000D+00 Coefficients=  3.6364000000D-01
 S 7 1.00
     Exponent=  1.6653000000D+03 Coefficients= -1.5006000000D-06
     Exponent=  3.7908000000D+02 Coefficients= -5.8753000000D-05
     Exponent=  1.0730000000D+02 Coefficients= -7.7453000000D-04
     Exponent=  3.4747000000D+01 Coefficients= -7.2161000000D-03
     Exponent=  1.2249000000D+01 Coefficients= -3.9338000000D-02
     Exponent=  4.4743000000D+00 Coefficients= -9.0611000000D-02
     Exponent=  1.2404000000D+00 Coefficients=  1.9882000000D-01
 S 1 1.00
     Exponent=  4.8743000000D-01 Coefficients=  1.0000000000D+00
 S 1 1.00
     Exponent=  1.6484000000D-01 Coefficients=  1.0000000000D+00
 P 4 1.00
     Exponent=  4.7934000000D+01 Coefficients=  6.1706000000D-03
     Exponent=  1.0999000000D+01 Coefficients=  4.4260000000D-02
     Exponent=  3.2472000000D+00 Coefficients=  1.6825000000D-01
     Exponent=  1.1114000000D+00 Coefficients=  3.6848000000D-01
 P 1 1.00
     Exponent=  3.7988000000D-01 Coefficients=  1.0000000000D+00
 P 1 1.00
     Exponent=  1.2068000000D-01 Coefficients=  1.0000000000D+00
 D 1 1.00
     Exponent=  1.8000000000D+00 Coefficients=  1.0000000000D+00
 D 1 1.00
     Exponent=  5.5000000000D-01 Coefficients=  1.0000000000D+00
 F 1 1.00
     Exponent=  1.0200000000D+00 Coefficients=  1.0000000000D+00
 ****
 Centers:       1
 S 7 1.00
     Exponent=  1.4782000000D+04 Coefficients=  5.3519000000D-04
     Exponent=  2.2173000000D+03 Coefficients=  4.1375000000D-03
     Exponent=  5.0474000000D+02 Coefficients=  2.1245000000D-02
     Exponent=  1.4287000000D+02 Coefficients=  8.2453000000D-02
     Exponent=  4.6300000000D+01 Coefficients=  2.3671000000D-01
     Exponent=  1.6337000000D+01 Coefficients=  4.4039000000D-01
     Exponent=  5.9828000000D+00 Coefficients=  3.6465000000D-01
 S 7 1.00
     Exponent=  2.2173000000D+03 Coefficients= -1.9275000000D-06
     Exponent=  5.0474000000D+02 Coefficients= -5.7964000000D-05
     Exponent=  1.4287000000D+02 Coefficients= -7.9494000000D-04
     Exponent=  4.6300000000D+01 Coefficients= -7.3125000000D-03
     Exponent=  1.6337000000D+01 Coefficients= -4.0574000000D-02
     Exponent=  5.9828000000D+00 Coefficients= -9.1594000000D-02
     Exponent=  1.6718000000D+00 Coefficients=  2.0940000000D-01
 S 1 1.00
     Exponent=  6.4662000000D-01 Coefficients=  1.0000000000D+00
 S 1 1.00
     Exponent=  2.1669000000D-01 Coefficients=  1.0000000000D+00
 P 4 1.00
     Exponent=  6.0424000000D+01 Coefficients=  6.8949000000D-03
     Exponent=  1.3935000000D+01 Coefficients=  4.9005000000D-02
     Exponent=  4.1531000000D+00 Coefficients=  1.8255000000D-01
     Exponent=  1.4158000000D+00 Coefficients=  3.7633000000D-01
 P 1 1.00
     Exponent=  4.7549000000D-01 Coefficients=  1.0000000000D+00
 P 1 1.00
     Exponent=  1.4529000000D-01 Coefficients=  1.0000000000D+00
 D 1 1.00
     Exponent=  2.2000000000D+00 Coefficients=  1.0000000000D+00
 D 1 1.00
     Exponent=  6.5000000000D-01 Coefficients=  1.0000000000D+00
 F 1 1.00
     Exponent=  1.1000000000D+00 Coefficients=  1.0000000000D+00
 ****
 Ernie: Thresh=  0.10000D-02 Tol=  0.10000D-05 Strict=F.
 Ernie:  7 primitive shells out of 220 were deleted.
 There are   223 symmetry adapted cartesian basis functions of A'  symmetry.
 There are    97 symmetry adapted cartesian basis functions of A"  symmetry.
 There are   190 symmetry adapted basis functions of A'  symmetry.
 There are    90 symmetry adapted basis functions of A"  symmetry.
   280 basis functions,   475 primitive gaussians,   320 cartesian basis functions
    25 alpha electrons       25 beta electrons
       nuclear repulsion energy       276.8386644497 Hartrees.
 IExCor= 2523 DFT=T Ex+Corr=TPSSh ExCW=0 ScaHFX=  0.100000
 ScaDFX=  0.900000  0.900000  1.000000  1.000000 ScalE2=  1.000000  1.000000
 IRadAn=      0 IRanWt=     -1 IRanGd=            0 ICorTp=0 IEmpDi=  4
 NAtoms=   12 NActive=   12 NUniq=   12 SFac= 1.00D+00 NAtFMM=   60 NAOKFM=F Big=F
 Integral buffers will be    131072 words long.
 Raffenetti 2 integral format.
 Two-electron integral symmetry is turned on.
 Leave Link  301 at Thu Sep  2 22:19:27 2021, MaxMem=  1342177280 cpu:         3.0
 (Enter /gpfs/share/home/1801110325/software/g09e01/l302.exe)
 NPDir=0 NMtPBC=     1 NCelOv=     1 NCel=       1 NClECP=     1 NCelD=      1
         NCelK=      1 NCelE2=     1 NClLst=     1 CellRange=     0.0.
 One-electron integrals computed using PRISM.
 NBasis=   280 RedAO= T EigKep=  2.29D-04  NBF=   190    90
 NBsUse=   280 1.00D-06 EigRej= -1.00D+00 NBFU=   190    90
 Precomputing XC quadrature grid using
 IXCGrd= 4 IRadAn=           0 IRanWt=          -1 IRanGd=           0 AccXCQ= 0.00D+00.
 Generated NRdTot=       0 NPtTot=           0 NUsed=           0 NTot=          32
 NSgBfM=   320   320   320   320   320 MxSgAt=    12 MxSgA2=    12.
 Leave Link  302 at Thu Sep  2 22:19:28 2021, MaxMem=  1342177280 cpu:         1.5
 (Enter /gpfs/share/home/1801110325/software/g09e01/l303.exe)
 DipDrv:  MaxL=1.
 Leave Link  303 at Thu Sep  2 22:19:28 2021, MaxMem=  1342177280 cpu:         0.2
 (Enter /gpfs/share/home/1801110325/software/g09e01/l401.exe)
 ExpMin= 7.41D-02 ExpMax= 1.48D+04 ExpMxC= 5.05D+02 IAcc=2 IRadAn=         4 AccDes= 0.00D+00
 Harris functional with IExCor= 1009 and IRadAn=       4 diagonalized for initial guess.
 HarFok:  IExCor= 1009 AccDes= 0.00D+00 IRadAn=         4 IDoV= 1 UseB2=F ITyADJ=14
 ICtDFT=  3500011 ScaDFX=  1.000000  1.000000  1.000000  1.000000
 FoFCou: FMM=F IPFlag=           0 FMFlag=      100000 FMFlg1=           0
         NFxFlg=           0 DoJE=T BraDBF=F KetDBF=T FulRan=T
         wScrn=  0.000000 ICntrl=     500 IOpCl=  0 I1Cent=   200000004 NGrid=           0
         NMat0=    1 NMatS0=      1 NMatT0=    0 NMatD0=    1 NMtDS0=    0 NMtDT0=    0
 Petite list used in FoFCou.
 Harris En= -323.391688734430    
 JPrj=0 DoOrth=F DoCkMO=F.
 Initial guess orbital symmetries:
       Occupied  (A') (A') (A') (A') (A') (A') (A') (A') (A') (A')
                 (A') (A') (A') (A') (A') (A') (A') (A') (A") (A')
                 (A') (A") (A") (A') (A")
       Virtual   (A") (A") (A') (A') (A") (A') (A') (A') (A') (A')
                 (A') (A') (A") (A') (A") (A') (A") (A') (A') (A')
                 (A') (A') (A") (A') (A") (A') (A') (A') (A') (A')
                 (A") (A') (A') (A') (A") (A') (A') (A') (A') (A')
                 (A') (A') (A") (A') (A') (A') (A") (A') (A") (A")
                 (A') (A") (A') (A') (A") (A') (A') (A') (A') (A")
                 (A') (A") (A') (A') (A") (A') (A") (A') (A") (A")
                 (A') (A') (A') (A") (A') (A") (A') (A") (A') (A')
                 (A") (A') (A") (A') (A") (A') (A') (A') (A") (A")
                 (A') (A') (A") (A') (A') (A') (A') (A") (A') (A')
                 (A') (A') (A") (A') (A') (A') (A") (A') (A') (A')
                 (A") (A') (A') (A') (A') (A') (A") (A') (A') (A")
                 (A') (A') (A") (A') (A') (A") (A") (A") (A') (A")
                 (A') (A') (A") (A') (A") (A') (A') (A") (A') (A')
                 (A') (A') (A") (A') (A") (A') (A') (A') (A') (A')
                 (A') (A") (A") (A") (A") (A') (A") (A") (A') (A")
                 (A') (A") (A') (A') (A") (A') (A') (A') (A') (A")
                 (A') (A") (A') (A") (A") (A') (A') (A") (A") (A")
                 (A') (A") (A') (A") (A") (A') (A') (A") (A') (A")
                 (A') (A") (A') (A") (A') (A") (A') (A') (A") (A')
                 (A') (A') (A") (A") (A') (A') (A") (A') (A') (A')
                 (A") (A') (A') (A") (A') (A") (A') (A") (A') (A')
                 (A") (A') (A") (A') (A") (A') (A') (A') (A") (A')
                 (A') (A') (A') (A") (A') (A") (A') (A') (A') (A')
                 (A') (A") (A') (A') (A') (A') (A') (A') (A') (A')
                 (A') (A') (A') (A') (A')
 The electronic state of the initial guess is 1-A'.
 Leave Link  401 at Thu Sep  2 22:19:28 2021, MaxMem=  1342177280 cpu:         3.2
 (Enter /gpfs/share/home/1801110325/software/g09e01/l502.exe)
 Closed shell SCF:
 Using DIIS extrapolation, IDIIS=  1040.
 Integral symmetry usage will be decided dynamically.
 Keep R1 ints in memory in symmetry-blocked form, NReq=1167783638.
 IVT=      330098 IEndB=      330098 NGot=  1342177280 MDV=   948231393
 LenX=   948231393 LenY=   948128552
 Requested convergence on RMS density matrix=1.00D-08 within 128 cycles.
 Requested convergence on MAX density matrix=1.00D-06.
 Requested convergence on             energy=1.00D-06.
 No special actions if energy rises.
 FoFCou: FMM=F IPFlag=           0 FMFlag=           0 FMFlg1=           0
         NFxFlg=           0 DoJE=F BraDBF=F KetDBF=F FulRan=T
         wScrn=  0.000000 ICntrl=     600 IOpCl=  0 I1Cent=           0 NGrid=           0
         NMat0=    1 NMatS0=  39340 NMatT0=    0 NMatD0=    1 NMtDS0=    0 NMtDT0=    0
 Petite list used in FoFCou.

 Cycle   1  Pass 1  IDiag  1:
 E= -323.476641052087    
 DIIS: error= 2.74D-02 at cycle   1 NSaved=   1.
 NSaved= 1 IEnMin= 1 EnMin= -323.476641052087     IErMin= 1 ErrMin= 2.74D-02
 ErrMax= 2.74D-02  0.00D+00 EMaxC= 1.00D-01 BMatC= 2.14D-01 BMatP= 2.14D-01
 IDIUse=3 WtCom= 7.26D-01 WtEn= 2.74D-01
 Coeff-Com:  0.100D+01
 Coeff-En:   0.100D+01
 Coeff:      0.100D+01
 Gap=     0.091 Goal=   None    Shift=    0.000
 GapD=    0.091 DampG=0.500 DampE=0.500 DampFc=0.2500 IDamp=-1.
 Damping current iteration by 2.50D-01
 RMSDP=4.47D-03 MaxDP=1.43D-01              OVMax= 4.00D-01

 Cycle   2  Pass 1  IDiag  1:
 E= -323.537203486127     Delta-E=       -0.060562434040 Rises=F Damp=T
 DIIS: error= 1.51D-02 at cycle   2 NSaved=   2.
 NSaved= 2 IEnMin= 2 EnMin= -323.537203486127     IErMin= 2 ErrMin= 1.51D-02
 ErrMax= 1.51D-02  0.00D+00 EMaxC= 1.00D-01 BMatC= 4.37D-02 BMatP= 2.14D-01
 IDIUse=3 WtCom= 8.49D-01 WtEn= 1.51D-01
 Coeff-Com: -0.408D+00 0.141D+01
 Coeff-En:   0.000D+00 0.100D+01
 Coeff:     -0.346D+00 0.135D+01
 Gap=     0.155 Goal=   None    Shift=    0.000
 RMSDP=1.11D-03 MaxDP=4.78D-02 DE=-6.06D-02 OVMax= 3.48D-01

 Cycle   3  Pass 1  IDiag  1:
 E= -323.617667025199     Delta-E=       -0.080463539072 Rises=F Damp=F
 DIIS: error= 1.44D-02 at cycle   3 NSaved=   3.
 NSaved= 3 IEnMin= 3 EnMin= -323.617667025199     IErMin= 3 ErrMin= 1.44D-02
 ErrMax= 1.44D-02  0.00D+00 EMaxC= 1.00D-01 BMatC= 4.94D-02 BMatP= 4.37D-02
 IDIUse=2 WtCom= 0.00D+00 WtEn= 1.00D+00
 Coeff-En:   0.000D+00 0.000D+00 0.100D+01
 Coeff:      0.000D+00 0.000D+00 0.100D+01
 Gap=     0.081 Goal=   None    Shift=    0.000
 RMSDP=2.24D-03 MaxDP=1.00D-01 DE=-8.05D-02 OVMax= 3.87D-01

 Cycle   4  Pass 1  IDiag  1:
 E= -323.342864699750     Delta-E=        0.274802325448 Rises=F Damp=F
 DIIS: error= 4.37D-02 at cycle   4 NSaved=   4.
 NSaved= 4 IEnMin= 3 EnMin= -323.617667025199     IErMin= 3 ErrMin= 1.44D-02
 ErrMax= 4.37D-02  0.00D+00 EMaxC= 1.00D-01 BMatC= 3.68D-01 BMatP= 4.37D-02
 IDIUse=2 WtCom= 0.00D+00 WtEn= 1.00D+00
 Coeff-En:   0.000D+00 0.000D+00 0.819D+00 0.181D+00
 Coeff:      0.000D+00 0.000D+00 0.819D+00 0.181D+00
 Gap=     0.140 Goal=   None    Shift=    0.000
 RMSDP=1.33D-03 MaxDP=5.66D-02 DE= 2.75D-01 OVMax= 2.09D-01

 Cycle   5  Pass 1  IDiag  1:
 E= -323.637654920530     Delta-E=       -0.294790220780 Rises=F Damp=F
 DIIS: error= 1.13D-02 at cycle   5 NSaved=   5.
 NSaved= 5 IEnMin= 5 EnMin= -323.637654920530     IErMin= 5 ErrMin= 1.13D-02
 ErrMax= 1.13D-02  0.00D+00 EMaxC= 1.00D-01 BMatC= 2.85D-02 BMatP= 4.37D-02
 IDIUse=3 WtCom= 8.87D-01 WtEn= 1.13D-01
 Coeff-Com: -0.466D-01 0.872D-01 0.376D+00-0.568D-01 0.640D+00
 Coeff-En:   0.000D+00 0.000D+00 0.396D+00 0.000D+00 0.604D+00
 Coeff:     -0.414D-01 0.773D-01 0.378D+00-0.504D-01 0.636D+00
 Gap=     0.156 Goal=   None    Shift=    0.000
 RMSDP=4.46D-04 MaxDP=1.81D-02 DE=-2.95D-01 OVMax= 7.93D-02

 Cycle   6  Pass 1  IDiag  1:
 E= -323.663200925733     Delta-E=       -0.025546005203 Rises=F Damp=F
 DIIS: error= 1.08D-03 at cycle   6 NSaved=   6.
 NSaved= 6 IEnMin= 6 EnMin= -323.663200925733     IErMin= 6 ErrMin= 1.08D-03
 ErrMax= 1.08D-03  0.00D+00 EMaxC= 1.00D-01 BMatC= 2.65D-04 BMatP= 2.85D-02
 IDIUse=3 WtCom= 9.89D-01 WtEn= 1.08D-02
 Coeff-Com: -0.332D-01 0.496D-01 0.170D+00-0.522D-01 0.378D+00 0.488D+00
 Coeff-En:   0.000D+00 0.000D+00 0.000D+00 0.000D+00 0.000D+00 0.100D+01
 Coeff:     -0.328D-01 0.490D-01 0.168D+00-0.516D-01 0.374D+00 0.493D+00
 Gap=     0.155 Goal=   None    Shift=    0.000
 RMSDP=5.22D-05 MaxDP=2.21D-03 DE=-2.55D-02 OVMax= 8.89D-03

 Cycle   7  Pass 1  IDiag  1:
 E= -323.663436443410     Delta-E=       -0.000235517677 Rises=F Damp=F
 DIIS: error= 4.06D-04 at cycle   7 NSaved=   7.
 NSaved= 7 IEnMin= 7 EnMin= -323.663436443410     IErMin= 7 ErrMin= 4.06D-04
 ErrMax= 4.06D-04  0.00D+00 EMaxC= 1.00D-01 BMatC= 2.69D-05 BMatP= 2.65D-04
 IDIUse=3 WtCom= 9.96D-01 WtEn= 4.06D-03
 Coeff-Com: -0.737D-02 0.842D-02 0.590D-01-0.182D-01 0.132D+00 0.273D+00
 Coeff-Com:  0.553D+00
 Coeff-En:   0.000D+00 0.000D+00 0.000D+00 0.000D+00 0.000D+00 0.801D-01
 Coeff-En:   0.920D+00
 Coeff:     -0.735D-02 0.839D-02 0.587D-01-0.181D-01 0.131D+00 0.273D+00
 Coeff:      0.554D+00
 Gap=     0.155 Goal=   None    Shift=    0.000
 RMSDP=1.72D-05 MaxDP=6.32D-04 DE=-2.36D-04 OVMax= 3.67D-03

 Cycle   8  Pass 1  IDiag  1:
 E= -323.663461418985     Delta-E=       -0.000024975575 Rises=F Damp=F
 DIIS: error= 1.04D-04 at cycle   8 NSaved=   8.
 NSaved= 8 IEnMin= 8 EnMin= -323.663461418985     IErMin= 8 ErrMin= 1.04D-04
 ErrMax= 1.04D-04  0.00D+00 EMaxC= 1.00D-01 BMatC= 3.51D-06 BMatP= 2.69D-05
 IDIUse=3 WtCom= 9.99D-01 WtEn= 1.04D-03
 Coeff-Com:  0.385D-03-0.170D-02 0.149D-01-0.400D-02 0.298D-01 0.105D+00
 Coeff-Com:  0.346D+00 0.509D+00
 Coeff-En:   0.000D+00 0.000D+00 0.000D+00 0.000D+00 0.000D+00 0.000D+00
 Coeff-En:   0.347D-01 0.965D+00
 Coeff:      0.385D-03-0.170D-02 0.149D-01-0.399D-02 0.297D-01 0.105D+00
 Coeff:      0.346D+00 0.510D+00
 Gap=     0.155 Goal=   None    Shift=    0.000
 RMSDP=5.33D-06 MaxDP=2.75D-04 DE=-2.50D-05 OVMax= 8.22D-04

 Cycle   9  Pass 1  IDiag  1:
 E= -323.663464605247     Delta-E=       -0.000003186261 Rises=F Damp=F
 DIIS: error= 2.37D-05 at cycle   9 NSaved=   9.
 NSaved= 9 IEnMin= 9 EnMin= -323.663464605247     IErMin= 9 ErrMin= 2.37D-05
 ErrMax= 2.37D-05  0.00D+00 EMaxC= 1.00D-01 BMatC= 8.66D-08 BMatP= 3.51D-06
 IDIUse=1 WtCom= 1.00D+00 WtEn= 0.00D+00
 Coeff-Com:  0.349D-03-0.557D-03 0.169D-02-0.668D-03 0.274D-02 0.248D-01
 Coeff-Com:  0.102D+00 0.178D+00 0.692D+00
 Coeff:      0.349D-03-0.557D-03 0.169D-02-0.668D-03 0.274D-02 0.248D-01
 Coeff:      0.102D+00 0.178D+00 0.692D+00
 Gap=     0.155 Goal=   None    Shift=    0.000
 RMSDP=1.38D-06 MaxDP=4.77D-05 DE=-3.19D-06 OVMax= 2.19D-04

 Cycle  10  Pass 1  IDiag  1:
 E= -323.663464653754     Delta-E=       -0.000000048507 Rises=F Damp=F
 DIIS: error= 1.94D-05 at cycle  10 NSaved=  10.
 NSaved=10 IEnMin=10 EnMin= -323.663464653754     IErMin=10 ErrMin= 1.94D-05
 ErrMax= 1.94D-05  0.00D+00 EMaxC= 1.00D-01 BMatC= 3.64D-08 BMatP= 8.66D-08
 IDIUse=1 WtCom= 1.00D+00 WtEn= 0.00D+00
 Coeff-Com:  0.241D-03-0.310D-03-0.222D-03-0.409D-04-0.865D-03 0.653D-02
 Coeff-Com:  0.324D-01 0.581D-01 0.460D+00 0.444D+00
 Coeff:      0.241D-03-0.310D-03-0.222D-03-0.409D-04-0.865D-03 0.653D-02
 Coeff:      0.324D-01 0.581D-01 0.460D+00 0.444D+00
 Gap=     0.155 Goal=   None    Shift=    0.000
 RMSDP=6.11D-07 MaxDP=2.02D-05 DE=-4.85D-08 OVMax= 9.18D-05

 Cycle  11  Pass 1  IDiag  1:
 E= -323.663464692934     Delta-E=       -0.000000039180 Rises=F Damp=F
 DIIS: error= 2.25D-06 at cycle  11 NSaved=  11.
 NSaved=11 IEnMin=11 EnMin= -323.663464692934     IErMin=11 ErrMin= 2.25D-06
 ErrMax= 2.25D-06  0.00D+00 EMaxC= 1.00D-01 BMatC= 8.49D-10 BMatP= 3.64D-08
 IDIUse=1 WtCom= 1.00D+00 WtEn= 0.00D+00
 Coeff-Com:  0.598D-04-0.731D-04-0.204D-03 0.360D-04-0.506D-03 0.822D-03
 Coeff-Com:  0.508D-02 0.640D-02 0.120D+00 0.185D+00 0.683D+00
 Coeff:      0.598D-04-0.731D-04-0.204D-03 0.360D-04-0.506D-03 0.822D-03
 Coeff:      0.508D-02 0.640D-02 0.120D+00 0.185D+00 0.683D+00
 Gap=     0.155 Goal=   None    Shift=    0.000
 RMSDP=1.04D-07 MaxDP=4.55D-06 DE=-3.92D-08 OVMax= 1.37D-05

 Cycle  12  Pass 1  IDiag  1:
 E= -323.663464693711     Delta-E=       -0.000000000777 Rises=F Damp=F
 DIIS: error= 8.41D-07 at cycle  12 NSaved=  12.
 NSaved=12 IEnMin=12 EnMin= -323.663464693711     IErMin=12 ErrMin= 8.41D-07
 ErrMax= 8.41D-07  0.00D+00 EMaxC= 1.00D-01 BMatC= 1.47D-10 BMatP= 8.49D-10
 IDIUse=1 WtCom= 1.00D+00 WtEn= 0.00D+00
 Coeff-Com:  0.140D-04-0.162D-04-0.105D-03 0.256D-04-0.234D-03 0.137D-04
 Coeff-Com:  0.510D-03-0.835D-03 0.369D-01 0.727D-01 0.383D+00 0.508D+00
 Coeff:      0.140D-04-0.162D-04-0.105D-03 0.256D-04-0.234D-03 0.137D-04
 Coeff:      0.510D-03-0.835D-03 0.369D-01 0.727D-01 0.383D+00 0.508D+00
 Gap=     0.155 Goal=   None    Shift=    0.000
 RMSDP=3.35D-08 MaxDP=1.73D-06 DE=-7.77D-10 OVMax= 4.15D-06

 Cycle  13  Pass 1  IDiag  1:
 E= -323.663464693848     Delta-E=       -0.000000000137 Rises=F Damp=F
 DIIS: error= 1.52D-07 at cycle  13 NSaved=  13.
 NSaved=13 IEnMin=13 EnMin= -323.663464693848     IErMin=13 ErrMin= 1.52D-07
 ErrMax= 1.52D-07  0.00D+00 EMaxC= 1.00D-01 BMatC= 6.05D-12 BMatP= 1.47D-10
 IDIUse=1 WtCom= 1.00D+00 WtEn= 0.00D+00
 Coeff-Com: -0.489D-05 0.659D-05-0.109D-04 0.323D-05-0.141D-04-0.306D-04
 Coeff-Com: -0.341D-03-0.101D-02 0.114D-02 0.533D-02 0.672D-01 0.182D+00
 Coeff-Com:  0.746D+00
 Coeff:     -0.489D-05 0.659D-05-0.109D-04 0.323D-05-0.141D-04-0.306D-04
 Coeff:     -0.341D-03-0.101D-02 0.114D-02 0.533D-02 0.672D-01 0.182D+00
 Coeff:      0.746D+00
 Gap=     0.155 Goal=   None    Shift=    0.000
 RMSDP=8.99D-09 MaxDP=2.90D-07 DE=-1.37D-10 OVMax= 1.03D-06

 SCF Done:  E(RTPSSh) =  -323.663464694     A.U. after   13 cycles
            NFock= 13  Conv=0.90D-08     -V/T= 2.0037
 KE= 3.224766241687D+02 PE=-1.308781678814D+03 EE= 3.858029255017D+02
 Leave Link  502 at Thu Sep  2 22:20:02 2021, MaxMem=  1342177280 cpu:       179.0
 (Enter /gpfs/share/home/1801110325/software/g09e01/l601.exe)
 Copying SCF densities to generalized density rwf, IOpCl= 0 IROHF=0.

 **********************************************************************

            Population analysis using the SCF density.

 **********************************************************************

 Orbital symmetries:
       Occupied  (A') (A') (A') (A') (A') (A') (A') (A') (A') (A')
                 (A') (A') (A') (A') (A') (A') (A') (A") (A') (A')
                 (A') (A") (A") (A') (A")
       Virtual   (A") (A") (A') (A') (A') (A') (A') (A") (A') (A')
                 (A") (A') (A') (A") (A') (A") (A') (A') (A') (A")
                 (A') (A') (A") (A') (A') (A') (A') (A') (A') (A')
                 (A") (A') (A') (A') (A") (A') (A') (A') (A') (A')
                 (A') (A') (A") (A') (A') (A') (A") (A') (A") (A")
                 (A') (A") (A') (A') (A") (A') (A') (A') (A') (A")
                 (A') (A') (A") (A") (A') (A') (A') (A") (A') (A")
                 (A") (A') (A') (A") (A') (A") (A') (A") (A') (A')
                 (A") (A') (A') (A") (A") (A') (A') (A') (A") (A")
                 (A') (A') (A") (A') (A') (A') (A') (A') (A") (A')
                 (A') (A') (A') (A") (A') (A") (A') (A') (A') (A')
                 (A") (A') (A') (A') (A') (A') (A") (A') (A') (A")
                 (A') (A') (A') (A") (A') (A") (A") (A") (A') (A")
                 (A') (A") (A') (A') (A") (A') (A") (A') (A') (A')
                 (A') (A') (A') (A') (A") (A") (A') (A') (A') (A')
                 (A") (A') (A") (A") (A") (A") (A') (A") (A') (A")
                 (A') (A") (A') (A") (A') (A') (A') (A') (A") (A')
                 (A") (A') (A") (A') (A") (A') (A') (A") (A") (A")
                 (A') (A") (A") (A') (A") (A') (A") (A') (A") (A')
                 (A") (A') (A') (A") (A') (A") (A') (A') (A") (A')
                 (A') (A") (A') (A") (A') (A') (A") (A') (A') (A')
                 (A") (A') (A') (A') (A") (A") (A") (A') (A') (A')
                 (A") (A') (A") (A') (A") (A') (A') (A") (A') (A')
                 (A') (A') (A') (A") (A') (A') (A') (A") (A') (A')
                 (A') (A") (A') (A') (A') (A') (A') (A') (A') (A')
                 (A') (A') (A') (A') (A')
 The electronic state is 1-A'.
 Alpha  occ. eigenvalues --  -19.00682 -14.30928 -10.20851 -10.17920 -10.14098
 Alpha  occ. eigenvalues --  -10.12592 -10.12196  -1.01822  -0.94252  -0.80759
 Alpha  occ. eigenvalues --   -0.74571  -0.64157  -0.62356  -0.55103  -0.49365
 Alpha  occ. eigenvalues --   -0.47549  -0.45021  -0.43042  -0.41169  -0.37650
 Alpha  occ. eigenvalues --   -0.36410  -0.33734  -0.30338  -0.23982  -0.21689
 Alpha virt. eigenvalues --   -0.06178  -0.00817   0.00372   0.02967   0.04391
 Alpha virt. eigenvalues --    0.06970   0.07971   0.11086   0.12602   0.14627
 Alpha virt. eigenvalues --    0.15041   0.15725   0.17507   0.19086   0.19110
 Alpha virt. eigenvalues --    0.20623   0.22409   0.23107   0.26546   0.26772
 Alpha virt. eigenvalues --    0.26807   0.28113   0.28865   0.29203   0.30912
 Alpha virt. eigenvalues --    0.31633   0.33683   0.34655   0.37784   0.40052
 Alpha virt. eigenvalues --    0.40705   0.42122   0.44563   0.46170   0.47831
 Alpha virt. eigenvalues --    0.48737   0.50521   0.52088   0.55365   0.58942
 Alpha virt. eigenvalues --    0.60437   0.61508   0.62940   0.64212   0.66565
 Alpha virt. eigenvalues --    0.70152   0.74479   0.75129   0.76698   0.79062
 Alpha virt. eigenvalues --    0.80731   0.82595   0.89189   0.90595   0.90994
 Alpha virt. eigenvalues --    0.93964   0.95538   0.97967   0.99289   1.05069
 Alpha virt. eigenvalues --    1.07670   1.09509   1.09930   1.12743   1.13539
 Alpha virt. eigenvalues --    1.14780   1.17365   1.17855   1.19421   1.23349
 Alpha virt. eigenvalues --    1.24381   1.25100   1.25610   1.27352   1.27761
 Alpha virt. eigenvalues --    1.33508   1.37340   1.39363   1.40694   1.43509
 Alpha virt. eigenvalues --    1.43987   1.47030   1.48802   1.49800   1.54441
 Alpha virt. eigenvalues --    1.56123   1.58492   1.61929   1.65074   1.66109
 Alpha virt. eigenvalues --    1.66254   1.68099   1.70760   1.71732   1.74685
 Alpha virt. eigenvalues --    1.78792   1.80095   1.85262   1.85468   1.89405
 Alpha virt. eigenvalues --    1.91403   1.95878   1.99856   2.00698   2.00977
 Alpha virt. eigenvalues --    2.06997   2.07079   2.14390   2.17291   2.21840
 Alpha virt. eigenvalues --    2.22040   2.24679   2.27298   2.28814   2.32680
 Alpha virt. eigenvalues --    2.36750   2.50854   2.63214   2.66651   2.86692
 Alpha virt. eigenvalues --    2.87972   2.90779   2.95631   2.96067   3.16446
 Alpha virt. eigenvalues --    3.19091   3.22657   3.25386   3.26073   3.26876
 Alpha virt. eigenvalues --    3.29585   3.33542   3.35254   3.36804   3.40287
 Alpha virt. eigenvalues --    3.45551   3.50105   3.52024   3.56797   3.58090
 Alpha virt. eigenvalues --    3.61987   3.65002   3.69015   3.70254   3.71722
 Alpha virt. eigenvalues --    3.72055   3.74507   3.81318   3.89561   3.90600
 Alpha virt. eigenvalues --    3.94595   3.95788   3.98026   3.99355   4.01265
 Alpha virt. eigenvalues --    4.03756   4.05258   4.07087   4.10077   4.11749
 Alpha virt. eigenvalues --    4.13118   4.15751   4.18612   4.19634   4.19903
 Alpha virt. eigenvalues --    4.24265   4.25979   4.26748   4.26910   4.27106
 Alpha virt. eigenvalues --    4.29149   4.30422   4.30735   4.30963   4.34606
 Alpha virt. eigenvalues --    4.36702   4.38405   4.38474   4.42561   4.45222
 Alpha virt. eigenvalues --    4.45445   4.49558   4.51729   4.51939   4.52907
 Alpha virt. eigenvalues --    4.55638   4.55718   4.58229   4.61260   4.61632
 Alpha virt. eigenvalues --    4.64743   4.66557   4.68102   4.69467   4.74977
 Alpha virt. eigenvalues --    4.75736   4.79922   4.82643   4.88154   4.89321
 Alpha virt. eigenvalues --    4.91686   4.97141   4.97605   5.01013   5.01845
 Alpha virt. eigenvalues --    5.07585   5.12258   5.16466   5.21014   5.23903
 Alpha virt. eigenvalues --    5.28535   5.29913   5.35542   5.39690   5.39873
 Alpha virt. eigenvalues --    5.40776   5.43971   5.45923   5.48722   5.51598
 Alpha virt. eigenvalues --    5.54371   5.61143   5.62703   5.66124   5.67118
 Alpha virt. eigenvalues --    5.72205   5.76309   5.82207   5.82562   5.85614
 Alpha virt. eigenvalues --    5.90582   5.98087   6.01921   6.06568   6.11412
 Alpha virt. eigenvalues --    6.16776   6.17011   6.17754   6.25530   6.35170
 Alpha virt. eigenvalues --    6.44032   6.54292   6.59314   6.67393   6.85628
 Alpha virt. eigenvalues --    6.99992   7.03252   7.33776   9.60998  12.34404
 Alpha virt. eigenvalues --   13.22799  14.71832  17.87035  18.31891  22.82739
          Condensed to atoms (all electrons):
               1          2          3          4          5          6
     1  O    8.021199  -0.119727   0.605959  -0.060194   0.005034   0.006097
     2  N   -0.119727   6.434266   0.346248  -0.038867   0.388564  -0.018901
     3  C    0.605959   0.346248   4.326689   0.420717  -0.037294  -0.029565
     4  C   -0.060194  -0.038867   0.420717   4.948124  -0.044740   0.546087
     5  C    0.005034   0.388564  -0.037294  -0.044740   4.554500  -0.081580
     6  C    0.006097  -0.018901  -0.029565   0.546087  -0.081580   4.692539
     7  C    0.001268  -0.056711  -0.019859  -0.062687   0.635790   0.469130
     8  H    0.016589   0.386486  -0.024430   0.015743  -0.025173  -0.004608
     9  H    0.007963   0.008099  -0.040928   0.435485  -0.000469  -0.031761
    10  H   -0.001274  -0.032412   0.000380  -0.004500   0.405262   0.008022
    11  H   -0.000619  -0.002140   0.004897  -0.024597   0.006925   0.407747
    12  H    0.000027   0.005670   0.000030   0.004944  -0.026970  -0.023632
               7          8          9         10         11         12
     1  O    0.001268   0.016589   0.007963  -0.001274  -0.000619   0.000027
     2  N   -0.056711   0.386486   0.008099  -0.032412  -0.002140   0.005670
     3  C   -0.019859  -0.024430  -0.040928   0.000380   0.004897   0.000030
     4  C   -0.062687   0.015743   0.435485  -0.004500  -0.024597   0.004944
     5  C    0.635790  -0.025173  -0.000469   0.405262   0.006925  -0.026970
     6  C    0.469130  -0.004608  -0.031761   0.008022   0.407747  -0.023632
     7  C    4.800646   0.007918   0.006136  -0.024638  -0.030835   0.427557
     8  H    0.007918   0.479949  -0.000543  -0.011935   0.000364  -0.000398
     9  H    0.006136  -0.000543   0.583582   0.000340  -0.007806  -0.000436
    10  H   -0.024638  -0.011935   0.000340   0.601084  -0.000930  -0.003067
    11  H   -0.030835   0.000364  -0.007806  -0.000930   0.604611  -0.004659
    12  H    0.427557  -0.000398  -0.000436  -0.003067  -0.004659   0.587624
 Mulliken charges:
               1
     1  O   -0.482321
     2  N   -0.300576
     3  C    0.447156
     4  C   -0.135515
     5  C    0.220151
     6  C    0.060425
     7  C   -0.153716
     8  H    0.160039
     9  H    0.040338
    10  H    0.063668
    11  H    0.047042
    12  H    0.033309
 Sum of Mulliken charges =  -0.00000
 Mulliken charges with hydrogens summed into heavy atoms:
               1
     1  O   -0.482321
     2  N   -0.140537
     3  C    0.447156
     4  C   -0.095177
     5  C    0.283820
     6  C    0.107467
     7  C   -0.120407
 Electronic spatial extent (au):  <R**2>=            625.3168
 Charge=             -0.0000 electrons
 Dipole moment (field-independent basis, Debye):
    X=             -1.2159    Y=             -4.0866    Z=             -0.0000  Tot=              4.2637
 Quadrupole moment (field-independent basis, Debye-Ang):
   XX=            -31.5074   YY=            -47.4079   ZZ=            -42.7265
   XY=              0.1555   XZ=              0.0000   YZ=             -0.0000
 Traceless Quadrupole moment (field-independent basis, Debye-Ang):
   XX=              9.0399   YY=             -6.8606   ZZ=             -2.1793
   XY=              0.1555   XZ=              0.0000   YZ=             -0.0000
 Octapole moment (field-independent basis, Debye-Ang**2):
  XXX=            -11.3479  YYY=            -29.4363  ZZZ=              0.0000  XYY=             -0.1029
  XXY=              1.2711  XXZ=              0.0000  XZZ=             -2.1007  YZZ=              5.3531
  YYZ=             -0.0000  XYZ=              0.0000
 Hexadecapole moment (field-independent basis, Debye-Ang**3):
 XXXX=           -236.4098 YYYY=           -534.6383 ZZZZ=            -45.8016 XXXY=              2.5378
 XXXZ=              0.0000 YYYX=              7.8160 YYYZ=             -0.0000 ZZZX=              0.0000
 ZZZY=             -0.0000 XXYY=           -116.0943 XXZZ=            -60.0720 YYZZ=            -94.9677
 XXYZ=             -0.0000 YYXZ=              0.0000 ZZXY=              1.2188
 N-N= 2.768386644497D+02 E-N=-1.308781667924D+03  KE= 3.224766241687D+02
 Symmetry A'   KE= 3.109880049814D+02
 Symmetry A"   KE= 1.148861918724D+01
 No NMR shielding tensors so no spin-rotation constants.
 Leave Link  601 at Thu Sep  2 22:20:03 2021, MaxMem=  1342177280 cpu:         1.2
 (Enter /gpfs/share/home/1801110325/software/g09e01/l701.exe)
 Compute integral first derivatives.
 ... and contract with generalized density number  0.
 Leave Link  701 at Thu Sep  2 22:20:03 2021, MaxMem=  1342177280 cpu:         1.9
 (Enter /gpfs/share/home/1801110325/software/g09e01/l702.exe)
 L702 exits ... SP integral derivatives will be done elsewhere.
 Leave Link  702 at Thu Sep  2 22:20:03 2021, MaxMem=  1342177280 cpu:         0.1
 (Enter /gpfs/share/home/1801110325/software/g09e01/l703.exe)
 Compute integral first derivatives, UseDBF=F ICtDFT=           0.
 Integral derivatives from FoFJK, PRISM(SPDF).
 Calling FoFJK, ICntrl=      2127 FMM=F ISym2X=1 I1Cent= 0 IOpClX= 0 NMat=1 NMatS=1 NMatT=0.
 FoFJK:  IHMeth= 1 ICntrl=    2127 DoSepK=F KAlg= 0 I1Cent=   0 FoldK=F
 IRaf=         0 NMat=   1 IRICut=       1 DoRegI=T DoRafI=F ISym2E= 1.
 FoFCou: FMM=F IPFlag=           0 FMFlag=      100000 FMFlg1=         800
         NFxFlg=           0 DoJE=F BraDBF=F KetDBF=F FulRan=T
         wScrn=  0.000000 ICntrl=    2127 IOpCl=  0 I1Cent=           0 NGrid=           0
         NMat0=    1 NMatS0=      1 NMatT0=    0 NMatD0=    1 NMtDS0=    0 NMtDT0=    0
 Petite list used in FoFCou.
 Leave Link  703 at Thu Sep  2 22:20:21 2021, MaxMem=  1342177280 cpu:       108.5
 (Enter /gpfs/share/home/1801110325/software/g09e01/l716.exe)
 Dipole        =-4.78376274D-01-1.60780716D+00-4.34426674D-32
 ***** Axes restored to original set *****
 -------------------------------------------------------------------
 Center     Atomic                   Forces (Hartrees/Bohr)
 Number     Number              X              Y              Z
 -------------------------------------------------------------------
      1        8          -0.002354688    0.018973859   -0.000000000
      2        7          -0.002221624    0.000219676   -0.000000000
      3        6           0.004019418   -0.012666860    0.000000000
      4        6           0.002263680    0.007263790   -0.000000000
      5        6          -0.007875349   -0.000950646   -0.000000000
      6        6           0.003504384   -0.007120184    0.000000000
      7        6           0.004678967   -0.005165676    0.000000000
      8        1          -0.002657850    0.000612290   -0.000000000
      9        1           0.000558699   -0.000028133    0.000000000
     10        1          -0.000566875    0.000355356   -0.000000000
     11        1           0.000604988   -0.000618943    0.000000000
     12        1           0.000046249   -0.000874528    0.000000000
 -------------------------------------------------------------------
 Cartesian Forces:  Max     0.018973859 RMS     0.004682185
 Leave Link  716 at Thu Sep  2 22:20:21 2021, MaxMem=  1342177280 cpu:         0.1
 (Enter /gpfs/share/home/1801110325/software/g09e01/l103.exe)

 GradGradGradGradGradGradGradGradGradGradGradGradGradGradGradGradGradGrad
 Berny optimization.
 FormGI is forming the generalized inverse of G from B-inverse, IUseBI=4.
 Internal  Forces:  Max     0.019116428 RMS     0.003472009
 Search for a local minimum.
 Step number   1 out of a maximum of   64
 All quantities printed in internal units (Hartrees-Bohrs-Radians)
 RMS Force = .34720D-02 SwitMx=.10000D-02 MixMth= 1
 Mixed Optimization -- RFO/linear search
 Second derivative matrix not updated -- first step.
 ITU=  0
     Eigenvalues ---    0.01577   0.01761   0.01972   0.02080   0.02183
     Eigenvalues ---    0.02246   0.02365   0.02483   0.02557   0.16000
     Eigenvalues ---    0.16000   0.16000   0.16000   0.16000   0.22000
     Eigenvalues ---    0.22000   0.23415   0.25000   0.35622   0.35864
     Eigenvalues ---    0.35940   0.36221   0.37867   0.40757   0.44267
     Eigenvalues ---    0.46319   0.50118   0.53776   0.54239   0.98595
 RFO step:  Lambda=-9.46025242D-04 EMin= 1.57720798D-02
 Linear search not attempted -- first point.
 Iteration  1 RMS(Cart)=  0.00809069 RMS(Int)=  0.00000576
 Iteration  2 RMS(Cart)=  0.00000675 RMS(Int)=  0.00000047
 Iteration  3 RMS(Cart)=  0.00000000 RMS(Int)=  0.00000047
 ITry= 1 IFail=0 DXMaxC= 3.24D-02 DCOld= 1.00D+10 DXMaxT= 3.00D-01 DXLimC= 3.00D+00 Rises=F
 ClnCor:  largest displacement from symmetrization is 1.71D-10 for atom    11.
 Variable       Old X    -DE/DX   Delta X   Delta X   Delta X     New X
                                 (Linear)    (Quad)   (Total)
    R1        2.29207   0.01912   0.00000   0.01937   0.01937   2.31144
    R2        2.65138   0.00659   0.00000   0.01433   0.01433   2.66570
    R3        2.56109   0.00470   0.00000   0.00867   0.00867   2.56976
    R4        1.90473   0.00261   0.00000   0.00563   0.00563   1.91036
    R5        2.72731   0.00440   0.00000   0.01096   0.01096   2.73827
    R6        2.55600   0.00968   0.00000   0.01777   0.01777   2.57377
    R7        2.04176   0.00045   0.00000   0.00126   0.00126   2.04302
    R8        2.55244   0.00898   0.00000   0.01651   0.01651   2.56894
    R9        2.04295   0.00034   0.00000   0.00096   0.00096   2.04390
   R10        2.67947   0.00379   0.00000   0.00911   0.00911   2.68858
   R11        2.04676   0.00083   0.00000   0.00232   0.00232   2.04908
   R12        2.03737   0.00088   0.00000   0.00241   0.00241   2.03978
    A1        2.18960   0.00054   0.00000   0.00184   0.00184   2.19144
    A2        1.99125   0.00046   0.00000   0.00365   0.00365   1.99491
    A3        2.10233  -0.00101   0.00000  -0.00550  -0.00550   2.09684
    A4        2.09504  -0.00028   0.00000  -0.00067  -0.00066   2.09438
    A5        2.21834   0.00038   0.00000   0.00197   0.00197   2.22031
    A6        1.96981  -0.00009   0.00000  -0.00131  -0.00131   1.96850
    A7        2.12410   0.00032   0.00000   0.00105   0.00106   2.12515
    A8        2.02595   0.00019   0.00000   0.00163   0.00163   2.02759
    A9        2.13313  -0.00051   0.00000  -0.00269  -0.00269   2.13044
   A10        2.10267  -0.00028   0.00000  -0.00092  -0.00092   2.10175
   A11        2.03035  -0.00046   0.00000  -0.00327  -0.00327   2.02708
   A12        2.15017   0.00074   0.00000   0.00419   0.00419   2.15436
   A13        2.12246  -0.00045   0.00000  -0.00148  -0.00148   2.12098
   A14        2.08387   0.00050   0.00000   0.00243   0.00243   2.08630
   A15        2.07686  -0.00005   0.00000  -0.00096  -0.00096   2.07590
   A16        2.05775  -0.00004   0.00000   0.00080   0.00080   2.05855
   A17        2.10204   0.00004   0.00000  -0.00026  -0.00026   2.10178
   A18        2.12340  -0.00000   0.00000  -0.00054  -0.00054   2.12285
    D1        3.14159  -0.00000   0.00000  -0.00000   0.00000   3.14159
    D2       -0.00000  -0.00000   0.00000  -0.00000   0.00000   0.00000
    D3        0.00000  -0.00000   0.00000  -0.00000   0.00000   0.00000
    D4        3.14159   0.00000   0.00000   0.00000   0.00000   3.14159
    D5        0.00000  -0.00000   0.00000   0.00000   0.00000   0.00000
    D6        3.14159   0.00000   0.00000   0.00000   0.00000   3.14159
    D7        3.14159  -0.00000   0.00000  -0.00000   0.00000   3.14159
    D8       -0.00000  -0.00000   0.00000  -0.00000   0.00000   0.00000
    D9        3.14159   0.00000   0.00000   0.00000   0.00000   3.14159
   D10        0.00000  -0.00000   0.00000   0.00000   0.00000   0.00000
   D11        0.00000   0.00000   0.00000   0.00000   0.00000   0.00000
   D12        3.14159   0.00000   0.00000   0.00000   0.00000   3.14159
   D13        0.00000  -0.00000   0.00000  -0.00000  -0.00000   0.00000
   D14        3.14159  -0.00000   0.00000  -0.00000   0.00000   3.14159
   D15        3.14159  -0.00000   0.00000   0.00000   0.00000   3.14159
   D16       -0.00000   0.00000   0.00000   0.00000   0.00000   0.00000
   D17       -0.00000   0.00000   0.00000   0.00000   0.00000   0.00000
   D18        3.14159   0.00000   0.00000   0.00000   0.00000   3.14159
   D19        3.14159  -0.00000   0.00000  -0.00000   0.00000   3.14159
   D20       -0.00000  -0.00000   0.00000  -0.00000   0.00000   0.00000
   D21        0.00000  -0.00000   0.00000   0.00000   0.00000   0.00000
   D22        3.14159   0.00000   0.00000   0.00000   0.00000   3.14159
   D23        3.14159  -0.00000   0.00000  -0.00000   0.00000   3.14159
   D24        0.00000  -0.00000   0.00000  -0.00000  -0.00000   0.00000
         Item               Value     Threshold  Converged?
 Maximum Force            0.019116     0.000450     NO 
 RMS     Force            0.003472     0.000300     NO 
 Maximum Displacement     0.032450     0.001800     NO 
 RMS     Displacement     0.008090     0.001200     NO 
 Predicted change in Energy=-4.737675D-04
 Lowest energy point so far.  Saving SCF results.
 GradGradGradGradGradGradGradGradGradGradGradGradGradGradGradGradGradGrad

 Leave Link  103 at Thu Sep  2 22:20:21 2021, MaxMem=  1342177280 cpu:         0.1
 (Enter /gpfs/share/home/1801110325/software/g09e01/l202.exe)
                          Input orientation:                          
 ---------------------------------------------------------------------
 Center     Atomic      Atomic             Coordinates (Angstroms)
 Number     Number       Type             X           Y           Z
 ---------------------------------------------------------------------
      1          8           0       -0.132969    2.285068   -0.000000
      2          7           0       -1.136787    0.234768   -0.000000
      3          6           0        0.000566    1.069218   -0.000000
      4          6           0        1.243322    0.324068    0.000000
      5          6           0       -1.120022   -1.124987   -0.000000
      6          6           0        1.262710   -1.037772    0.000000
      7          6           0        0.060645   -1.798832    0.000000
      8          1           0       -2.017221    0.731549   -0.000000
      9          1           0        2.151242    0.911005    0.000000
     10          1           0       -2.085007   -1.613486   -0.000000
     11          1           0        2.213635   -1.558836    0.000000
     12          1           0        0.073989   -2.878154    0.000000
 ---------------------------------------------------------------------
                    Distance matrix (angstroms):
                    1          2          3          4          5
     1  O    0.000000
     2  N    2.282844   0.000000
     3  C    1.223161   1.410630   0.000000
     4  C    2.395766   2.381783   1.449031   0.000000
     5  C    3.550035   1.359859   2.463788   2.772211   0.000000
     6  C    3.604051   2.716054   2.456098   1.361978   2.384328
     7  C    4.088486   2.359952   2.868679   2.430108   1.359427
     8  H    2.442095   1.010918   2.045846   3.285906   2.061963
     9  H    2.665646   3.356849   2.156488   1.081118   3.853107
    10  H    4.359951   2.077298   3.398017   3.851219   1.081586
    11  H    4.503570   3.800309   3.435744   2.118215   3.361769
    12  H    5.167368   3.340100   3.948054   3.409041   2.121145
                    6          7          8          9         10
     6  C    0.000000
     7  C    1.422734   0.000000
     8  H    3.726721   3.274195   0.000000
     9  H    2.141780   3.422545   4.172325   0.000000
    10  H    3.396860   2.153642   2.346014   4.931416   0.000000
    11  H    1.084327   2.166325   4.811029   2.470629   4.298990
    12  H    2.190904   1.079405   4.171704   4.321193   2.502129
                   11         12
    11  H    0.000000
    12  H    2.513699   0.000000
 Stoichiometry    C5H5NO
 Framework group  CS[SG(C5H5NO)]
 Deg. of freedom    21
 Full point group                 CS      NOp   2
 RotChk:  IX=0 Diff= 7.84D-04
 Largest Abelian subgroup         CS      NOp   2
 Largest concise Abelian subgroup C1      NOp   1
                         Standard orientation:                         
 ---------------------------------------------------------------------
 Center     Atomic      Atomic             Coordinates (Angstroms)
 Number     Number       Type             X           Y           Z
 ---------------------------------------------------------------------
      1          8           0       -0.134210    2.282870    0.000000
      2          7           0       -1.136890    0.232014    0.000000
      3          6           0       -0.000000    1.067095    0.000000
      4          6           0        1.243169    0.322634    0.000000
      5          6           0       -1.119370   -1.127732   -0.000000
      6          6           0        1.263313   -1.039195   -0.000000
      7          6           0        0.061670   -1.800921   -0.000000
      8          1           0       -2.017600    0.728306    0.000000
      9          1           0        2.150764    0.910075    0.000000
     10          1           0       -2.084085   -1.616766   -0.000000
     11          1           0        2.214527   -1.559731   -0.000000
     12          1           0        0.075613   -2.880236   -0.000000
 ---------------------------------------------------------------------
 Rotational constants (GHZ):      5.6832921      2.7904348      1.8715326
 Leave Link  202 at Thu Sep  2 22:20:21 2021, MaxMem=  1342177280 cpu:         0.0
 (Enter /gpfs/share/home/1801110325/software/g09e01/l301.exe)
 Basis read from rwf:  (5D, 7F)
 No pseudopotential information found on rwf file.
 There are   223 symmetry adapted cartesian basis functions of A'  symmetry.
 There are    97 symmetry adapted cartesian basis functions of A"  symmetry.
 There are   190 symmetry adapted basis functions of A'  symmetry.
 There are    90 symmetry adapted basis functions of A"  symmetry.
   280 basis functions,   475 primitive gaussians,   320 cartesian basis functions
    25 alpha electrons       25 beta electrons
       nuclear repulsion energy       275.4408328812 Hartrees.
 IExCor= 2523 DFT=T Ex+Corr=TPSSh ExCW=0 ScaHFX=  0.100000
 ScaDFX=  0.900000  0.900000  1.000000  1.000000 ScalE2=  1.000000  1.000000
 IRadAn=      0 IRanWt=     -1 IRanGd=            0 ICorTp=0 IEmpDi=  4
 NAtoms=   12 NActive=   12 NUniq=   12 SFac= 1.00D+00 NAtFMM=   60 NAOKFM=F Big=F
 Integral buffers will be    131072 words long.
 Raffenetti 2 integral format.
 Two-electron integral symmetry is turned on.
 No density basis found on file   724.
 Leave Link  301 at Thu Sep  2 22:20:21 2021, MaxMem=  1342177280 cpu:         0.3
 (Enter /gpfs/share/home/1801110325/software/g09e01/l302.exe)
 NPDir=0 NMtPBC=     1 NCelOv=     1 NCel=       1 NClECP=     1 NCelD=      1
         NCelK=      1 NCelE2=     1 NClLst=     1 CellRange=     0.0.
 One-electron integrals computed using PRISM.
 NBasis=   280 RedAO= T EigKep=  2.36D-04  NBF=   190    90
 NBsUse=   280 1.00D-06 EigRej= -1.00D+00 NBFU=   190    90
 Precomputing XC quadrature grid using
 IXCGrd= 4 IRadAn=           0 IRanWt=          -1 IRanGd=           0 AccXCQ= 0.00D+00.
 Generated NRdTot=       0 NPtTot=           0 NUsed=           0 NTot=          32
 NSgBfM=   320   320   320   320   320 MxSgAt=    12 MxSgA2=    12.
 Leave Link  302 at Thu Sep  2 22:20:22 2021, MaxMem=  1342177280 cpu:         1.1
 (Enter /gpfs/share/home/1801110325/software/g09e01/l303.exe)
 DipDrv:  MaxL=1.
 Leave Link  303 at Thu Sep  2 22:20:22 2021, MaxMem=  1342177280 cpu:         0.2
 (Enter /gpfs/share/home/1801110325/software/g09e01/l401.exe)
 Initial guess from the checkpoint file:  "PY_TPSSh_PC2_OPT_FREQ.chk"
 B after Tr=     0.000000    0.000000    0.000000
         Rot=    1.000000   -0.000000    0.000000   -0.000405 Ang=  -0.05 deg.
 Guess basis will be translated and rotated to current coordinates.
 JPrj=2 DoOrth=T DoCkMO=T.
 Initial guess orbital symmetries:
       Occupied  (A') (A') (A') (A') (A') (A') (A') (A') (A') (A')
                 (A') (A') (A') (A') (A') (A') (A') (A") (A') (A')
                 (A') (A") (A") (A') (A")
       Virtual   (A') (A') (A') (A') (A') (A') (A') (A') (A') (A')
                 (A') (A') (A') (A') (A') (A') (A') (A') (A') (A')
                 (A') (A') (A') (A') (A') (A') (A') (A') (A') (A')
                 (A') (A') (A') (A') (A') (A') (A') (A') (A') (A')
                 (A') (A') (A') (A') (A') (A') (A') (A') (A') (A')
                 (A') (A') (A') (A') (A') (A') (A') (A') (A') (A')
                 (A') (A') (A') (A') (A') (A') (A') (A') (A') (A')
                 (A') (A') (A') (A') (A') (A') (A') (A') (A') (A')
                 (A') (A') (A') (A') (A') (A') (A') (A') (A') (A')
                 (A') (A') (A') (A') (A') (A') (A') (A') (A') (A')
                 (A') (A') (A') (A') (A') (A') (A') (A') (A') (A')
                 (A') (A') (A') (A') (A') (A') (A') (A') (A') (A')
                 (A') (A') (A') (A') (A') (A') (A') (A') (A') (A')
                 (A') (A') (A') (A') (A') (A') (A') (A') (A') (A')
                 (A') (A') (A') (A') (A') (A') (A') (A') (A') (A')
                 (A') (A') (A') (A') (A') (A') (A') (A') (A') (A')
                 (A') (A') (A') (A') (A') (A') (A') (A') (A') (A")
                 (A") (A") (A") (A") (A") (A") (A") (A") (A") (A")
                 (A") (A") (A") (A") (A") (A") (A") (A") (A") (A")
                 (A") (A") (A") (A") (A") (A") (A") (A") (A") (A")
                 (A") (A") (A") (A") (A") (A") (A") (A") (A") (A")
                 (A") (A") (A") (A") (A") (A") (A") (A") (A") (A")
                 (A") (A") (A") (A") (A") (A") (A") (A") (A") (A")
                 (A") (A") (A") (A") (A") (A") (A") (A") (A") (A")
                 (A") (A") (A") (A") (A") (A") (A") (A") (A") (A")
                 (A") (A") (A") (A") (A")
 The electronic state of the initial guess is 1-A'.
 Generating alternative initial guess.
 ExpMin= 7.41D-02 ExpMax= 1.48D+04 ExpMxC= 5.05D+02 IAcc=2 IRadAn=         4 AccDes= 0.00D+00
 Harris functional with IExCor= 1009 and IRadAn=       4 diagonalized for initial guess.
 HarFok:  IExCor= 1009 AccDes= 0.00D+00 IRadAn=         4 IDoV= 1 UseB2=F ITyADJ=14
 ICtDFT=  3500011 ScaDFX=  1.000000  1.000000  1.000000  1.000000
 FoFCou: FMM=F IPFlag=           0 FMFlag=      100000 FMFlg1=           0
         NFxFlg=           0 DoJE=T BraDBF=F KetDBF=T FulRan=T
         wScrn=  0.000000 ICntrl=     500 IOpCl=  0 I1Cent=   200000004 NGrid=           0
         NMat0=    1 NMatS0=      1 NMatT0=    0 NMatD0=    1 NMtDS0=    0 NMtDT0=    0
 Petite list used in FoFCou.
 Harris En= -323.387881712697    
 Leave Link  401 at Thu Sep  2 22:20:22 2021, MaxMem=  1342177280 cpu:         3.5
 (Enter /gpfs/share/home/1801110325/software/g09e01/l502.exe)
 Closed shell SCF:
 Using DIIS extrapolation, IDIIS=  1040.
 Integral symmetry usage will be decided dynamically.
 Keep R1 ints in memory in symmetry-blocked form, NReq=1167783638.
 IVT=      330098 IEndB=      330098 NGot=  1342177280 MDV=   948231393
 LenX=   948231393 LenY=   948128552
 Requested convergence on RMS density matrix=1.00D-08 within 128 cycles.
 Requested convergence on MAX density matrix=1.00D-06.
 Requested convergence on             energy=1.00D-06.
 No special actions if energy rises.
 FoFCou: FMM=F IPFlag=           0 FMFlag=           0 FMFlg1=           0
         NFxFlg=           0 DoJE=F BraDBF=F KetDBF=F FulRan=T
         wScrn=  0.000000 ICntrl=     600 IOpCl=  0 I1Cent=           0 NGrid=           0
         NMat0=    1 NMatS0=  39340 NMatT0=    0 NMatD0=    1 NMtDS0=    0 NMtDT0=    0
 Petite list used in FoFCou.

 Cycle   1  Pass 1  IDiag  1:
 E= -323.663797309946    
 DIIS: error= 6.23D-04 at cycle   1 NSaved=   1.
 NSaved= 1 IEnMin= 1 EnMin= -323.663797309946     IErMin= 1 ErrMin= 6.23D-04
 ErrMax= 6.23D-04  0.00D+00 EMaxC= 1.00D-01 BMatC= 1.57D-04 BMatP= 1.57D-04
 IDIUse=3 WtCom= 9.94D-01 WtEn= 6.23D-03
 Coeff-Com:  0.100D+01
 Coeff-En:   0.100D+01
 Coeff:      0.100D+01
 Gap=     0.542 Goal=   None    Shift=    0.000
 RMSDP=4.52D-05 MaxDP=1.53D-03              OVMax= 3.44D-03

 Cycle   2  Pass 1  IDiag  1:
 E= -323.663917405119     Delta-E=       -0.000120095173 Rises=F Damp=F
 DIIS: error= 3.46D-04 at cycle   2 NSaved=   2.
 NSaved= 2 IEnMin= 2 EnMin= -323.663917405119     IErMin= 2 ErrMin= 3.46D-04
 ErrMax= 3.46D-04  0.00D+00 EMaxC= 1.00D-01 BMatC= 2.60D-05 BMatP= 1.57D-04
 IDIUse=3 WtCom= 9.97D-01 WtEn= 3.46D-03
 Coeff-Com:  0.229D+00 0.771D+00
 Coeff-En:   0.000D+00 0.100D+01
 Coeff:      0.228D+00 0.772D+00
 Gap=     0.153 Goal=   None    Shift=    0.000
 RMSDP=2.50D-05 MaxDP=8.60D-04 DE=-1.20D-04 OVMax= 1.66D-03

 Cycle   3  Pass 1  IDiag  1:
 E= -323.663928908072     Delta-E=       -0.000011502953 Rises=F Damp=F
 DIIS: error= 2.41D-04 at cycle   3 NSaved=   3.
 NSaved= 3 IEnMin= 3 EnMin= -323.663928908072     IErMin= 3 ErrMin= 2.41D-04
 ErrMax= 2.41D-04  0.00D+00 EMaxC= 1.00D-01 BMatC= 1.15D-05 BMatP= 2.60D-05
 IDIUse=3 WtCom= 9.98D-01 WtEn= 2.41D-03
 Coeff-Com:  0.233D-01 0.400D+00 0.576D+00
 Coeff-En:   0.000D+00 0.334D+00 0.666D+00
 Coeff:      0.232D-01 0.400D+00 0.576D+00
 Gap=     0.153 Goal=   None    Shift=    0.000
 RMSDP=1.11D-05 MaxDP=4.76D-04 DE=-1.15D-05 OVMax= 1.34D-03

 Cycle   4  Pass 1  IDiag  1:
 E= -323.663938716574     Delta-E=       -0.000009808501 Rises=F Damp=F
 DIIS: error= 9.08D-05 at cycle   4 NSaved=   4.
 NSaved= 4 IEnMin= 4 EnMin= -323.663938716574     IErMin= 4 ErrMin= 9.08D-05
 ErrMax= 9.08D-05  0.00D+00 EMaxC= 1.00D-01 BMatC= 1.87D-06 BMatP= 1.15D-05
 IDIUse=1 WtCom= 1.00D+00 WtEn= 0.00D+00
 Coeff-Com:  0.237D-02 0.217D+00 0.376D+00 0.404D+00
 Coeff:      0.237D-02 0.217D+00 0.376D+00 0.404D+00
 Gap=     0.153 Goal=   None    Shift=    0.000
 RMSDP=4.51D-06 MaxDP=2.05D-04 DE=-9.81D-06 OVMax= 7.86D-04

 Cycle   5  Pass 1  IDiag  1:
 E= -323.663940100133     Delta-E=       -0.000001383559 Rises=F Damp=F
 DIIS: error= 3.25D-05 at cycle   5 NSaved=   5.
 NSaved= 5 IEnMin= 5 EnMin= -323.663940100133     IErMin= 5 ErrMin= 3.25D-05
 ErrMax= 3.25D-05  0.00D+00 EMaxC= 1.00D-01 BMatC= 2.23D-07 BMatP= 1.87D-06
 IDIUse=1 WtCom= 1.00D+00 WtEn= 0.00D+00
 Coeff-Com: -0.194D-02 0.610D-01 0.141D+00 0.273D+00 0.527D+00
 Coeff:     -0.194D-02 0.610D-01 0.141D+00 0.273D+00 0.527D+00
 Gap=     0.153 Goal=   None    Shift=    0.000
 RMSDP=1.67D-06 MaxDP=8.13D-05 DE=-1.38D-06 OVMax= 2.68D-04

 Cycle   6  Pass 1  IDiag  1:
 E= -323.663940284532     Delta-E=       -0.000000184399 Rises=F Damp=F
 DIIS: error= 9.58D-06 at cycle   6 NSaved=   6.
 NSaved= 6 IEnMin= 6 EnMin= -323.663940284532     IErMin= 6 ErrMin= 9.58D-06
 ErrMax= 9.58D-06  0.00D+00 EMaxC= 1.00D-01 BMatC= 1.60D-08 BMatP= 2.23D-07
 IDIUse=1 WtCom= 1.00D+00 WtEn= 0.00D+00
 Coeff-Com: -0.104D-02 0.192D-01 0.551D-01 0.124D+00 0.314D+00 0.489D+00
 Coeff:     -0.104D-02 0.192D-01 0.551D-01 0.124D+00 0.314D+00 0.489D+00
 Gap=     0.153 Goal=   None    Shift=    0.000
 RMSDP=3.74D-07 MaxDP=1.45D-05 DE=-1.84D-07 OVMax= 3.66D-05

 Cycle   7  Pass 1  IDiag  1:
 E= -323.663940297086     Delta-E=       -0.000000012554 Rises=F Damp=F
 DIIS: error= 2.53D-06 at cycle   7 NSaved=   7.
 NSaved= 7 IEnMin= 7 EnMin= -323.663940297086     IErMin= 7 ErrMin= 2.53D-06
 ErrMax= 2.53D-06  0.00D+00 EMaxC= 1.00D-01 BMatC= 1.66D-09 BMatP= 1.60D-08
 IDIUse=1 WtCom= 1.00D+00 WtEn= 0.00D+00
 Coeff-Com: -0.362D-03 0.170D-02 0.119D-01 0.304D-01 0.114D+00 0.279D+00
 Coeff-Com:  0.563D+00
 Coeff:     -0.362D-03 0.170D-02 0.119D-01 0.304D-01 0.114D+00 0.279D+00
 Coeff:      0.563D+00
 Gap=     0.153 Goal=   None    Shift=    0.000
 RMSDP=1.17D-07 MaxDP=4.73D-06 DE=-1.26D-08 OVMax= 2.22D-05

 Cycle   8  Pass 1  IDiag  1:
 E= -323.663940298426     Delta-E=       -0.000000001340 Rises=F Damp=F
 DIIS: error= 9.12D-07 at cycle   8 NSaved=   8.
 NSaved= 8 IEnMin= 8 EnMin= -323.663940298426     IErMin= 8 ErrMin= 9.12D-07
 ErrMax= 9.12D-07  0.00D+00 EMaxC= 1.00D-01 BMatC= 1.55D-10 BMatP= 1.66D-09
 IDIUse=1 WtCom= 1.00D+00 WtEn= 0.00D+00
 Coeff-Com: -0.173D-03 0.225D-03 0.502D-02 0.134D-01 0.587D-01 0.152D+00
 Coeff-Com:  0.345D+00 0.425D+00
 Coeff:     -0.173D-03 0.225D-03 0.502D-02 0.134D-01 0.587D-01 0.152D+00
 Coeff:      0.345D+00 0.425D+00
 Gap=     0.153 Goal=   None    Shift=    0.000
 RMSDP=4.20D-08 MaxDP=2.35D-06 DE=-1.34D-09 OVMax= 8.26D-06

 Cycle   9  Pass 1  IDiag  1:
 E= -323.663940298576     Delta-E=       -0.000000000150 Rises=F Damp=F
 DIIS: error= 2.34D-07 at cycle   9 NSaved=   9.
 NSaved= 9 IEnMin= 9 EnMin= -323.663940298576     IErMin= 9 ErrMin= 2.34D-07
 ErrMax= 2.34D-07  0.00D+00 EMaxC= 1.00D-01 BMatC= 1.03D-11 BMatP= 1.55D-10
 IDIUse=1 WtCom= 1.00D+00 WtEn= 0.00D+00
 Coeff-Com: -0.203D-05-0.292D-03-0.370D-03-0.804D-03 0.302D-02 0.798D-02
 Coeff-Com:  0.218D-01 0.202D+00 0.766D+00
 Coeff:     -0.203D-05-0.292D-03-0.370D-03-0.804D-03 0.302D-02 0.798D-02
 Coeff:      0.218D-01 0.202D+00 0.766D+00
 Gap=     0.153 Goal=   None    Shift=    0.000
 RMSDP=9.62D-09 MaxDP=4.08D-07 DE=-1.50D-10 OVMax= 1.47D-06

 SCF Done:  E(RTPSSh) =  -323.663940299     A.U. after    9 cycles
            NFock=  9  Conv=0.96D-08     -V/T= 2.0042
 KE= 3.223167226245D+02 PE=-1.305855096640D+03 EE= 3.844336008362D+02
 Leave Link  502 at Thu Sep  2 22:20:53 2021, MaxMem=  1342177280 cpu:       160.8
 (Enter /gpfs/share/home/1801110325/software/g09e01/l701.exe)
 Compute integral first derivatives.
 ... and contract with generalized density number  0.
 Leave Link  701 at Thu Sep  2 22:20:53 2021, MaxMem=  1342177280 cpu:         1.7
 (Enter /gpfs/share/home/1801110325/software/g09e01/l702.exe)
 L702 exits ... SP integral derivatives will be done elsewhere.
 Leave Link  702 at Thu Sep  2 22:20:53 2021, MaxMem=  1342177280 cpu:         0.1
 (Enter /gpfs/share/home/1801110325/software/g09e01/l703.exe)
 Compute integral first derivatives, UseDBF=F ICtDFT=           0.
 Integral derivatives from FoFJK, PRISM(SPDF).
 Calling FoFJK, ICntrl=      2127 FMM=F ISym2X=1 I1Cent= 0 IOpClX= 0 NMat=1 NMatS=1 NMatT=0.
 FoFJK:  IHMeth= 1 ICntrl=    2127 DoSepK=F KAlg= 0 I1Cent=   0 FoldK=F
 IRaf=         0 NMat=   1 IRICut=       1 DoRegI=T DoRafI=F ISym2E= 1.
 FoFCou: FMM=F IPFlag=           0 FMFlag=      100000 FMFlg1=         800
[...]
     35  0.000000D+00 -0.385288D-03 -0.411018D-03  0.000000D+00  0.255266D-03
     36 -0.271906D-01  0.000000D+00  0.000000D+00  0.192776D-02  0.000000D+00
               26            27            28            29            30 
     26  0.143258D+00
     27  0.000000D+00  0.240067D-01
     28 -0.116097D-03  0.000000D+00  0.299481D+00
     29  0.110685D-03  0.000000D+00  0.120418D+00  0.122708D+00
     30  0.000000D+00 -0.130408D-02  0.000000D+00  0.000000D+00  0.239589D-01
     31  0.219002D-03  0.000000D+00 -0.105803D-02  0.865740D-03  0.000000D+00
     32  0.127408D-02  0.000000D+00 -0.904092D-03  0.620882D-03  0.000000D+00
     33  0.000000D+00 -0.589740D-02  0.000000D+00  0.000000D+00 -0.410691D-03
     34 -0.139380D-02  0.000000D+00  0.895847D-03 -0.581781D-03  0.000000D+00
     35 -0.580368D-03  0.000000D+00  0.269473D-03  0.583584D-03  0.000000D+00
     36  0.000000D+00  0.626131D-03  0.000000D+00  0.000000D+00 -0.475784D-02
               31            32            33            34            35 
     31  0.286068D+00
     32 -0.123963D+00  0.126361D+00
     33  0.000000D+00  0.000000D+00  0.265725D-01
     34  0.110531D-02  0.847358D-03  0.000000D+00  0.563560D-01
     35 -0.181050D-03  0.725724D-03  0.000000D+00 -0.493416D-02  0.365126D+00
     36  0.000000D+00  0.000000D+00 -0.222425D-02  0.000000D+00  0.000000D+00
               36 
     36  0.228085D-01
 FormGI is forming the generalized inverse of G from B-inverse, IUseBI=4.
 Leave Link  716 at Thu Sep  2 22:27:33 2021, MaxMem=  1342177280 cpu:         0.2
 (Enter /gpfs/share/home/1801110325/software/g09e01/l103.exe)

 GradGradGradGradGradGradGradGradGradGradGradGradGradGradGradGradGradGrad
 Berny optimization.
 Red2BG is reusing G-inverse.
 Internal  Forces:  Max     0.000080446 RMS     0.000019805
 Search for a local minimum.
 Step number   1 out of a maximum of    2
 All quantities printed in internal units (Hartrees-Bohrs-Radians)
 Second derivative matrix not updated -- analytic derivatives used.
 ITU=  0
     Eigenvalues ---    0.00794   0.01127   0.01546   0.01707   0.01931
     Eigenvalues ---    0.02199   0.02604   0.03219   0.04562   0.10117
     Eigenvalues ---    0.10678   0.10915   0.12118   0.12709   0.16510
     Eigenvalues ---    0.19049   0.19986   0.22810   0.30100   0.31292
     Eigenvalues ---    0.35399   0.36043   0.36365   0.36628   0.37541
     Eigenvalues ---    0.41356   0.45774   0.50104   0.52938   0.77236
 Angle between quadratic step and forces=  34.27 degrees.
 Linear search not attempted -- first point.
 Iteration  1 RMS(Cart)=  0.00014663 RMS(Int)=  0.00000003
 Iteration  2 RMS(Cart)=  0.00000003 RMS(Int)=  0.00000000
 ITry= 1 IFail=0 DXMaxC= 5.10D-04 DCOld= 1.00D+10 DXMaxT= 3.00D-01 DXLimC= 3.00D+00 Rises=F
 ClnCor:  largest displacement from symmetrization is 1.31D-12 for atom    11.
 Variable       Old X    -DE/DX   Delta X   Delta X   Delta X     New X
                                 (Linear)    (Quad)   (Total)
    R1        2.31523  -0.00006   0.00000  -0.00010  -0.00010   2.31514
    R2        2.66511   0.00002   0.00000   0.00019   0.00019   2.66530
    R3        2.56865  -0.00008   0.00000  -0.00029  -0.00029   2.56836
    R4        1.91023   0.00001   0.00000   0.00004   0.00004   1.91027
    R5        2.73194   0.00001   0.00000  -0.00005  -0.00005   2.73189
    R6        2.57512   0.00003   0.00000   0.00012   0.00012   2.57525
    R7        2.04257   0.00000   0.00000   0.00000   0.00000   2.04257
    R8        2.56957   0.00004   0.00000   0.00014   0.00014   2.56971
    R9        2.04339   0.00001   0.00000   0.00003   0.00003   2.04341
   R10        2.68527  -0.00001   0.00000  -0.00009  -0.00009   2.68519
   R11        2.04846   0.00001   0.00000   0.00002   0.00002   2.04848
   R12        2.03965  -0.00001   0.00000  -0.00002  -0.00002   2.03963
    A1        2.19157   0.00001   0.00000   0.00008   0.00008   2.19165
    A2        1.99569  -0.00004   0.00000  -0.00043  -0.00043   1.99526
    A3        2.09593   0.00003   0.00000   0.00035   0.00035   2.09628
    A4        2.09092  -0.00002   0.00000  -0.00016  -0.00016   2.09076
    A5        2.22217   0.00002   0.00000   0.00021   0.00021   2.22238
    A6        1.97009   0.00000   0.00000  -0.00005  -0.00005   1.97005
    A7        2.12386  -0.00001   0.00000  -0.00005  -0.00005   2.12381
    A8        2.03069   0.00004   0.00000   0.00035   0.00035   2.03104
    A9        2.12863  -0.00003   0.00000  -0.00030  -0.00030   2.12833
   A10        2.10024   0.00000   0.00000  -0.00000  -0.00000   2.10023
   A11        2.02687   0.00001   0.00000   0.00019   0.00019   2.02706
   A12        2.15608  -0.00002   0.00000  -0.00019  -0.00019   2.15589
   A13        2.12209  -0.00000   0.00000   0.00006   0.00006   2.12214
   A14        2.08478  -0.00002   0.00000  -0.00022  -0.00022   2.08457
   A15        2.07632   0.00002   0.00000   0.00016   0.00016   2.07648
   A16        2.05852  -0.00000   0.00000  -0.00004  -0.00004   2.05848
   A17        2.10097  -0.00001   0.00000  -0.00008  -0.00008   2.10088
   A18        2.12370   0.00001   0.00000   0.00012   0.00012   2.12382
    D1        3.14159   0.00000   0.00000   0.00000   0.00000   3.14159
    D2        0.00000   0.00000   0.00000   0.00000  -0.00000   0.00000
    D3        0.00000   0.00000   0.00000   0.00000   0.00000   0.00000
    D4        3.14159   0.00000   0.00000   0.00000   0.00000   3.14159
    D5       -0.00000  -0.00000   0.00000  -0.00000   0.00000   0.00000
    D6        3.14159   0.00000   0.00000  -0.00000   0.00000   3.14159
    D7        3.14159   0.00000   0.00000  -0.00000   0.00000   3.14159
    D8        0.00000  -0.00000   0.00000  -0.00000  -0.00000   0.00000
    D9        3.14159  -0.00000   0.00000  -0.00000   0.00000   3.14159
   D10       -0.00000  -0.00000   0.00000  -0.00000   0.00000   0.00000
   D11       -0.00000  -0.00000   0.00000  -0.00000   0.00000   0.00000
   D12        3.14159   0.00000   0.00000  -0.00000   0.00000   3.14159
   D13        0.00000   0.00000   0.00000  -0.00000  -0.00000   0.00000
   D14        3.14159   0.00000   0.00000  -0.00000   0.00000   3.14159
   D15        3.14159  -0.00000   0.00000  -0.00000   0.00000   3.14159
   D16        0.00000   0.00000   0.00000  -0.00000  -0.00000   0.00000
   D17       -0.00000  -0.00000   0.00000  -0.00000   0.00000   0.00000
   D18        3.14159  -0.00000   0.00000  -0.00000   0.00000   3.14159
   D19        3.14159   0.00000   0.00000  -0.00000   0.00000   3.14159
   D20       -0.00000  -0.00000   0.00000  -0.00000   0.00000   0.00000
   D21        0.00000   0.00000   0.00000   0.00000   0.00000   0.00000
   D22        3.14159   0.00000   0.00000   0.00000   0.00000   3.14159
   D23        3.14159   0.00000   0.00000   0.00000   0.00000   3.14159
   D24        0.00000   0.00000   0.00000   0.00000   0.00000   0.00000
         Item               Value     Threshold  Converged?
 Maximum Force            0.000080     0.000450     YES
 RMS     Force            0.000020     0.000300     YES
 Maximum Displacement     0.000510     0.001800     YES
 RMS     Displacement     0.000147     0.001200     YES
 Predicted change in Energy=-5.883404D-08
 Optimization completed.
    -- Stationary point found.
                           ----------------------------
                           !   Optimized Parameters   !
                           ! (Angstroms and Degrees)  !
 --------------------------                            --------------------------
 ! Name  Definition              Value          Derivative Info.                !
 --------------------------------------------------------------------------------
 ! R1    R(1,3)                  1.2252         -DE/DX =   -0.0001              !
 ! R2    R(2,3)                  1.4103         -DE/DX =    0.0                 !
 ! R3    R(2,5)                  1.3593         -DE/DX =   -0.0001              !
 ! R4    R(2,8)                  1.0109         -DE/DX =    0.0                 !
 ! R5    R(3,4)                  1.4457         -DE/DX =    0.0                 !
 ! R6    R(4,6)                  1.3627         -DE/DX =    0.0                 !
 ! R7    R(4,9)                  1.0809         -DE/DX =    0.0                 !
 ! R8    R(5,7)                  1.3598         -DE/DX =    0.0                 !
 ! R9    R(5,10)                 1.0813         -DE/DX =    0.0                 !
 ! R10   R(6,7)                  1.421          -DE/DX =    0.0                 !
 ! R11   R(6,11)                 1.084          -DE/DX =    0.0                 !
 ! R12   R(7,12)                 1.0793         -DE/DX =    0.0                 !
 ! A1    A(3,2,5)              125.5677         -DE/DX =    0.0                 !
 ! A2    A(3,2,8)              114.3445         -DE/DX =    0.0                 !
 ! A3    A(5,2,8)              120.0877         -DE/DX =    0.0                 !
 ! A4    A(1,3,2)              119.801          -DE/DX =    0.0                 !
 ! A5    A(1,3,4)              127.321          -DE/DX =    0.0                 !
 ! A6    A(2,3,4)              112.878          -DE/DX =    0.0                 !
 ! A7    A(3,4,6)              121.6885         -DE/DX =    0.0                 !
 ! A8    A(3,4,9)              116.3499         -DE/DX =    0.0                 !
 ! A9    A(6,4,9)              121.9616         -DE/DX =    0.0                 !
 ! A10   A(2,5,7)              120.3348         -DE/DX =    0.0                 !
 ! A11   A(2,5,10)             116.1309         -DE/DX =    0.0                 !
 ! A12   A(7,5,10)             123.5343         -DE/DX =    0.0                 !
 ! A13   A(4,6,7)              121.5865         -DE/DX =    0.0                 !
 ! A14   A(4,6,11)             119.4493         -DE/DX =    0.0                 !
 ! A15   A(7,6,11)             118.9641         -DE/DX =    0.0                 !
 ! A16   A(5,7,6)              117.9444         -DE/DX =    0.0                 !
 ! A17   A(5,7,12)             120.3764         -DE/DX =    0.0                 !
 ! A18   A(6,7,12)             121.6792         -DE/DX =    0.0                 !
 ! D1    D(5,2,3,1)            180.0            -DE/DX =    0.0                 !
 ! D2    D(5,2,3,4)              0.0            -DE/DX =    0.0                 !
 ! D3    D(8,2,3,1)              0.0            -DE/DX =    0.0                 !
 ! D4    D(8,2,3,4)            180.0            -DE/DX =    0.0                 !
 ! D5    D(3,2,5,7)              0.0            -DE/DX =    0.0                 !
 ! D6    D(3,2,5,10)           180.0            -DE/DX =    0.0                 !
 ! D7    D(8,2,5,7)            180.0            -DE/DX =    0.0                 !
 ! D8    D(8,2,5,10)             0.0            -DE/DX =    0.0                 !
 ! D9    D(1,3,4,6)            180.0            -DE/DX =    0.0                 !
 ! D10   D(1,3,4,9)              0.0            -DE/DX =    0.0                 !
 ! D11   D(2,3,4,6)              0.0            -DE/DX =    0.0                 !
 ! D12   D(2,3,4,9)            180.0            -DE/DX =    0.0                 !
 ! D13   D(3,4,6,7)              0.0            -DE/DX =    0.0                 !
 ! D14   D(3,4,6,11)           180.0            -DE/DX =    0.0                 !
 ! D15   D(9,4,6,7)            180.0            -DE/DX =    0.0                 !
 ! D16   D(9,4,6,11)             0.0            -DE/DX =    0.0                 !
 ! D17   D(2,5,7,6)              0.0            -DE/DX =    0.0                 !
 ! D18   D(2,5,7,12)           180.0            -DE/DX =    0.0                 !
 ! D19   D(10,5,7,6)           180.0            -DE/DX =    0.0                 !
 ! D20   D(10,5,7,12)            0.0            -DE/DX =    0.0                 !
 ! D21   D(4,6,7,5)              0.0            -DE/DX =    0.0                 !
 ! D22   D(4,6,7,12)           180.0            -DE/DX =    0.0                 !
 ! D23   D(11,6,7,5)           180.0            -DE/DX =    0.0                 !
 ! D24   D(11,6,7,12)            0.0            -DE/DX =    0.0                 !
 --------------------------------------------------------------------------------
 GradGradGradGradGradGradGradGradGradGradGradGradGradGradGradGradGradGrad

 Leave Link  103 at Thu Sep  2 22:27:33 2021, MaxMem=  1342177280 cpu:         0.1
 (Enter /gpfs/share/home/1801110325/software/g09e01/l9999.exe)
 1\1\GINC-A8U03N01\Freq\RTPSSh\Gen\C5H5N1O1\1801110325\02-Sep-2021\0\\#
 P Geom=AllCheck Guess=TCheck SCRF=Check GenChk RTPSSh/ChkBas Freq\\PY_
 TPSSh_PC2_OPT_FREQ\\0,1\O,-0.134766664,2.2849476993,0.\N,-1.1355842261
 ,0.2341275569,0.\C,0.0021983527,1.0674596883,0.\C,1.2426540156,0.32499
 4805,0.\C,-1.1201173631,-1.1250537155,0.\C,1.2613521451,-1.0375734557,
 0.\C,0.061212826,-1.7984044295,0.\H,-2.015942597,0.7309079242,0.\H,2.1
 517380101,0.9096886136,0.\H,-2.0854292863,-1.6123049255,0.\H,2.2125097
 972,-1.5575218921,0.\H,0.07427799,-2.8776598692,0.\\Version=EM64L-G09R
 evE.01\State=1-A'\HF=-323.6639558\RMSD=4.451e-09\RMSF=4.123e-05\ZeroPo
 int=0.0931518\Thermal=0.0984585\Dipole=-0.475572,-1.6455383,0.\DipoleD
 eriv=-0.4286995,0.2484028,0.,0.0568643,-1.7205808,0.,0.,0.,-0.4112357,
 -0.3299861,-0.505266,0.,0.3675538,-0.7466754,0.,0.,0.,-0.2052352,0.443
 2466,-0.1620182,0.,-0.0262131,2.1017572,0.,0.,0.,0.2379147,-0.051513,0
 .5001222,0.,-0.0268754,-0.5518231,0.,0.,0.,-0.1613566,0.3377183,-0.018
 3587,0.,-0.589551,0.4059133,0.,0.,0.,-0.0194128,0.3791754,0.2009157,0.
 ,0.1540463,0.4637489,0.,0.,0.,-0.0796634,-0.5379838,-0.2040554,0.,0.10
 88553,-0.1202523,0.,0.,0.,-0.2018277,0.2160908,-0.0284939,0.,-0.013238
 8,0.1329298,0.,0.,0.,0.2709886,-0.0069953,-0.0371973,0.,-0.0502951,0.0
 268348,0.,0.,0.,0.1449974,-0.0263869,-0.0540945,0.,-0.039893,0.0289251
 ,0.,0.,0.,0.141646,-0.0586164,0.0765077,0.,0.0735312,0.0365785,0.,0.,0
 .,0.1215306,0.0639499,-0.0164644,0.,-0.0147844,-0.057356,0.,0.,0.,0.16
 16541\Polar=73.744655,0.0679806,90.4849436,0.,0.,37.5763145\PG=CS [SG(
 C5H5N1O1)]\NImag=0\\0.09442411,-0.06404598,0.73744672,0.,0.,0.03229377
 ,0.01301172,-0.03796037,0.,0.72756313,-0.06709817,-0.07364018,0.,-0.11
 550479,0.73961353,0.,0.,0.01841089,0.,0.,0.07239310,-0.10763369,0.0748
 7844,0.,-0.19627829,0.02749594,0.,0.53273200,0.07180546,-0.60995154,0.
 ,-0.02316936,-0.12968520,0.,-0.11012095,0.88293189,0.,0.,-0.07113473,0
 .,0.,-0.05700310,0.,0.,0.19193769,0.00414283,0.02789519,0.,-0.04431670
 ,-0.01469377,0.,-0.21453599,0.05213459,0.,0.64224118,0.04997098,-0.052
 48163,0.,-0.00828696,0.04571080,0.,0.02683731,-0.12489578,0.,0.0697545
 2,0.76117264,0.,0.,0.02144789,0.,0.,0.00431641,0.,0.,-0.07524332,0.,0.
 ,0.11392415,-0.01032928,-0.00268795,0.,-0.14594324,-0.02495798,0.,0.03
 683698,-0.02176546,0.,-0.01257419,0.02135421,0.,0.81782183,0.01497936,
 -0.00293460,0.,0.02848319,-0.32616733,0.,-0.07653936,-0.02747228,0.,0.
 01868564,-0.03144922,0.,-0.01386260,0.66408982,0.,0.,0.00507754,0.,0.,
 -0.04246141,0.,0.,-0.00373114,0.,0.,0.00063934,0.,0.,0.13372067,-0.013
 56927,0.00707851,0.,-0.00468800,-0.03227236,0.,0.03733763,0.03369248,0
 .,-0.12983868,0.02714615,0.,-0.06081215,0.01546945,0.,0.67189012,-0.00
 632760,0.01160011,0.,-0.00479731,-0.03636187,0.,0.04834776,-0.02443112
 ,0.,-0.01543502,-0.41887977,0.,-0.02021615,0.04931465,0.,-0.04519144,0
 .73048272,0.,0.,0.00418227,0.,0.,-0.00489080,0.,0.,-0.00058443,0.,0.,-
 0.05334466,0.,0.,0.00683214,0.,0.,0.13909061,0.01098738,-0.00746744,0.
 ,0.00996773,0.06629581,0.,-0.04950706,-0.00239007,0.,0.02305084,-0.052
 58170,0.,-0.34327744,0.09877683,0.,-0.23580727,-0.04794514,0.,0.668321
 30,-0.00283766,-0.00450473,0.,0.03791222,-0.04515447,0.,0.00953750,0.0
 0566730,0.,-0.03286177,-0.02729755,0.,0.14155323,-0.18628991,0.,-0.098
 11311,-0.16637921,0.,-0.05626002,0.75584155,0.,0.,-0.00023428,0.,0.,0.
 01117677,0.,0.,-0.00714083,0.,0.,0.00664270,0.,0.,-0.06034873,0.,0.,-0
 .05880699,0.,0.,0.11099104,0.00536324,0.00055236,0.,-0.35459019,0.1542
 9155,0.,-0.02332708,0.01981381,0.,-0.00410156,-0.00402027,0.,0.0067681
 9,-0.00120867,0.,-0.00107722,-0.00267211,0.,0.00450379,-0.00243727,0.,
 0.36618004,0.00515128,-0.00175761,0.,0.15204994,-0.15389024,0.,-0.0181
 5336,0.02093457,0.,-0.00327407,-0.00342953,0.,0.03308664,-0.01251296,0
 .,-0.00008955,0.00045396,0.,-0.00395762,-0.00589342,0.,-0.16468616,0.1
 5490074,0.,0.,-0.00451973,0.,0.,-0.01629086,0.,0.,0.00300160,0.,0.,0.0
 0444291,0.,0.,-0.00559925,0.,0.,-0.00066857,0.,0.,0.00510173,0.,0.,0.0
 1652065,0.00308958,0.00126067,0.,-0.00540077,0.00285076,0.,-0.01735728
 ,-0.01999646,0.,-0.26282841,-0.12813988,0.,-0.00016262,0.00246082,0.,0
 .00563583,0.00303039,0.,0.00237089,0.00101201,0.,-0.00112342,-0.001073
 64,0.,0.27464406,-0.00188671,0.00078897,0.,0.00415924,-0.00104161,0.,0
 .01421950,0.01126603,0.,-0.12979499,-0.13745640,0.,0.00068798,-0.00118
 321,0.,-0.02813224,-0.01221690,0.,0.00207853,-0.00491264,0.,0.00097045
 ,0.00069370,0.,0.13898914,0.14325765,0.,0.,-0.00220953,0.,0.,0.0049193
 1,0.,0.,0.00261091,0.,0.,-0.03363962,0.,0.,-0.00071676,0.,0.,0.0026431
 4,0.,0.,0.00944459,0.,0.,-0.00048335,0.,0.,0.02400666,-0.00012050,-0.0
 0011875,0.,0.00515696,0.00200590,0.,0.00207246,0.00174321,0.,0.0005729
 1,0.00065645,0.,-0.28901329,-0.11261363,0.,-0.00352278,0.00446466,0.,-
 0.01553066,-0.01531151,0.,0.00106711,-0.00049325,0.,-0.00000098,-0.000
 11610,0.,0.29948096,-0.00186813,-0.00302100,0.,-0.03613873,-0.02066361
 ,0.,0.00739651,-0.00030870,0.,-0.00023169,0.00011338,0.,-0.10634069,-0
 .11235506,0.,0.00280745,-0.00185268,0.,0.01406812,0.01317012,0.,-0.000
 25396,0.00089464,0.,-0.00014050,0.00011068,0.,0.12041765,0.12270775,0.
 ,0.,-0.00025520,0.,0.,0.00255099,0.,0.,0.00529635,0.,0.,0.00006303,0.,
 0.,-0.03666791,0.,0.,0.00799419,0.,0.,0.00619720,0.,0.,-0.00266497,0.,
 0.,-0.00130408,0.,0.,0.02395893,-0.00012604,0.00059426,0.,0.00105894,-
 0.00063577,0.,0.00165057,-0.00157416,0.,0.00320036,-0.00097703,0.,-0.0
 0393103,-0.00432450,0.,-0.27105406,0.11492312,0.,-0.01787657,0.0150091
 1,0.,0.00003442,0.00004407,0.,0.00092799,0.00021900,0.,-0.00105803,0.0
 0086574,0.,0.28606815,0.00206089,-0.00144638,0.,0.00032237,-0.00017097
 ,0.,-0.00355730,-0.00469529,0.,0.03067116,-0.01155380,0.,-0.00357665,-
 0.00165730,0.,0.11445651,-0.12144277,0.,-0.01588442,0.01196764,0.,0.00
 003554,0.00001717,0.,-0.00050857,0.00127408,0.,-0.00090409,0.00062088,
 0.,-0.12396279,0.12636103,0.,0.,-0.00253914,0.,0.,-0.00067144,0.,0.,0.
 01232998,0.,0.,0.00681107,0.,0.,0.00468939,0.,0.,-0.04205948,0.,0.,0.0
 0416735,0.,0.,-0.00076789,0.,0.,-0.00589740,0.,0.,-0.00041069,0.,0.,0.
 02657249,0.00075989,0.00002106,0.,-0.00554128,0.00222286,0.,-0.0019902
 3,-0.00017308,0.,-0.00501259,-0.00171377,0.,0.00461625,0.02969348,0.,0
 .00550585,-0.02818116,0.,-0.05720292,0.00279728,0.,0.00030269,0.001395
 72,0.,0.00020514,-0.00139380,0.,0.00089585,-0.00058178,0.,0.00110531,0
 .00084736,0.,0.05635605,0.00009628,-0.00009813,0.,0.00293056,0.0014511
 6,0.,-0.00034199,0.00064012,0.,-0.00284979,0.00044686,0.,-0.00327459,-
 0.01138260,0.,0.00314816,-0.01028711,0.,0.00526713,-0.34621468,0.,-0.0
 0038529,-0.00041102,0.,0.00025527,-0.00058037,0.,0.00026947,0.00058358
 ,0.,-0.00018105,0.00072572,0.,-0.00493416,0.36512644,0.,0.,-0.00051976
 ,0.,0.,0.00755014,0.,0.,-0.00033897,0.,0.,0.00394010,0.,0.,-0.00143388
 ,0.,0.,-0.00038742,0.,0.,-0.02719055,0.,0.,0.00192776,0.,0.,0.00062613
 ,0.,0.,-0.00475784,0.,0.,-0.00222425,0.,0.,0.02280854\\0.00002416,0.00
 006611,0.,0.00002474,0.00014944,0.,-0.00000154,-0.00007965,0.,0.000012
 00,-0.00006639,0.,0.00002718,-0.00011613,0.,0.00001457,0.00004074,0.,-
 0.00005196,0.00002190,0.,-0.00000200,-0.00002838,0.,-0.00001230,0.0000
 1316,0.,-0.00000724,0.00002843,0.,-0.00002227,-0.00002415,0.,-0.000005
 33,-0.00000509,0.\\\@


 MEN HAVE BECOME THE TOOLS OF THEIR TOOLS... THOREAU   
 Job cpu time:       0 days  0 hours 28 minutes 40.3 seconds.
 File lengths (MBytes):  RWF=   2160 Int=      0 D2E=      0 Chk=     32 Scr=     32
 Normal termination of Gaussian 09 at Thu Sep  2 22:27:33 2021.
