 Entering Gaussian System, Link 0=g09
 AtFile(1): pc-2.gbs
            -H     0
            S    4   1.00
                  0.754230D+02           0.240650D-02
                  0.113500D+02           0.184870D-01
                  0.259930D+01           0.897420D-01
                  0.735130D+00           0.281110D+00
            S    1   1.00
                  0.231670D+00           0.100000D+01
            S    1   1.00
                  0.741470D-01           0.100000D+01
            P    1   1.00
                  0.160000D+01           0.100000D+01
            P    1   1.00
                  0.450000D+00           0.100000D+01
            D    1   1.00
                  0.125000D+01           0.100000D+01
            ****
            -C     0
            S    7   1.00
                  0.785710D+04           0.568250D-03
                  0.117870D+04           0.439150D-02
                  0.268320D+03           0.225040D-01
                  0.759480D+02           0.866530D-01
                  0.245590D+02           0.244050D+00
                  0.862120D+01           0.441480D+00
                  0.312780D+01           0.353320D+00
            S    7   1.00
                  0.117870D+04          -0.594920D-06
                  0.268320D+03          -0.627480D-04
                  0.759480D+02          -0.757730D-03
                  0.245590D+02          -0.733080D-02
                  0.862120D+01          -0.389320D-01
                  0.312780D+01          -0.889080D-01
                  0.822020D+00           0.216890D+00
            S    1   1.00
                  0.330170D+00           0.100000D+01
            S    1   1.00
                  0.114630D+00           0.100000D+01
            P    4   1.00
                  0.337750D+02           0.602940D-02
                  0.767660D+01           0.432280D-01
                  0.223570D+01           0.163010D+00
                  0.764470D+00           0.365040D+00
            P    1   1.00
                  0.262320D+00           0.100000D+01
            P    1   1.00
                  0.846380D-01           0.100000D+01
            D    1   1.00
                  0.140000D+01           0.100000D+01
            D    1   1.00
                  0.450000D+00           0.100000D+01
            F    1   1.00
                  0.950000D+00           0.100000D+01
            ****
            -N     0
            S    7   1.00
                  0.111010D+05           0.545700D-03
                  0.166530D+04           0.421810D-02
                  0.379080D+03           0.216450D-01
                  0.107300D+03           0.837760D-01
                  0.347470D+02           0.238810D+00
                  0.122490D+02           0.439940D+00
                  0.447430D+01           0.363640D+00
            S    7   1.00
                  0.166530D+04          -0.150060D-05
                  0.379080D+03          -0.587530D-04
                  0.107300D+03          -0.774530D-03
                  0.347470D+02          -0.721610D-02
                  0.122490D+02          -0.393380D-01
                  0.447430D+01          -0.906110D-01
                  0.124040D+01           0.198820D+00
            S    1   1.00
                  0.487430D+00           0.100000D+01
            S    1   1.00
                  0.164840D+00           0.100000D+01
            P    4   1.00
                  0.479340D+02           0.617060D-02
                  0.109990D+02           0.442600D-01
                  0.324720D+01           0.168250D+00
                  0.111140D+01           0.368480D+00
            P    1   1.00
                  0.379880D+00           0.100000D+01
            P    1   1.00
                  0.120680D+00           0.100000D+01
            D    1   1.00
                  0.180000D+01           0.100000D+01
            D    1   1.00
                  0.550000D+00           0.100000D+01
            F    1   1.00
                  0.102000D+01           0.100000D+01
            ****
            -O     0
            S    7   1.00
                  0.147820D+05           0.535190D-03
                  0.221730D+04           0.413750D-02
                  0.504740D+03           0.212450D-01
                  0.142870D+03           0.824530D-01
                  0.463000D+02           0.236710D+00
                  0.163370D+02           0.440390D+00
                  0.598280D+01           0.364650D+00
            S    7   1.00
                  0.221730D+04          -0.192750D-05
                  0.504740D+03          -0.579640D-04
                  0.142870D+03          -0.794940D-03
                  0.463000D+02          -0.731250D-02
                  0.163370D+02          -0.405740D-01
                  0.598280D+01          -0.915940D-01
                  0.167180D+01           0.209400D+00
            S    1   1.00
                  0.646620D+00           0.100000D+01
            S    1   1.00
                  0.216690D+00           0.100000D+01
            P    4   1.00
                  0.604240D+02           0.689490D-02
                  0.139350D+02           0.490050D-01
                  0.415310D+01           0.182550D+00
                  0.141580D+01           0.376330D+00
            P    1   1.00
                  0.475490D+00           0.100000D+01
            P    1   1.00
                  0.145290D+00           0.100000D+01
            D    1   1.00
                  0.220000D+01           0.100000D+01
            D    1   1.00
                  0.650000D+00           0.100000D+01
            F    1   1.00
                  0.110000D+01           0.100000D+01
            ****
 Initial command:
 /gpfs/share/home/1801110325/software/g09e01/l1.exe "./Gau-28843.inp" -scrdir="./"
 Entering Link 1 = /gpfs/share/home/1801110325/software/g09e01/l1.exe PID=     28844.
  
 Copyright (c) 1988,1990,1992,1993,1995,1998,2003,2009,2015,
            Gaussian, Inc.  All Rights Reserved.
  
 This is part of the Gaussian(R) 09 program.  It is based on
 the Gaussian(R) 03 system (copyright 2003, Gaussian, Inc.),
 the Gaussian(R) 98 system (copyright 1998, Gaussian, Inc.),
 the Gaussian(R) 94 system (copyright 1995, Gaussian, Inc.),
 the Gaussian 92(TM) system (copyright 1992, Gaussian, Inc.),
 the Gaussian 90(TM) system (copyright 1990, Gaussian, Inc.),
 the Gaussian 88(TM) system (copyright 1988, Gaussian, Inc.),
 the Gaussian 86(TM) system (copyright 1986, Carnegie Mellon
 University), and the Gaussian 82(TM) system (copyright 1983,
 Carnegie Mellon University). Gaussian is a federally registered
 trademark of Gaussian, Inc.
  
 This software contains proprietary and confidential information,
 including trade secrets, belonging to Gaussian, Inc.
  
 This software is provided under written license and may be
 used, copied, transmitted, or stored only in accord with that
 written license.
  
 The following legend is applicable only to US Government
 contracts under FAR:
  
                    RESTRICTED RIGHTS LEGEND
  
 Use, reproduction and disclosure by the US Government is
 subject to restrictions as set forth in subparagraphs (a)
 and (c) of the Commercial Computer Software - Restricted
 Rights clause in FAR 52.227-19.
  
 Gaussian, Inc.
 340 Quinnipiac St., Bldg. 40, Wallingford CT 06492
  
  
 ---------------------------------------------------------------
 Warning -- This program may not be used in any manner that
 competes with the business of Gaussian, Inc. or will provide
 assistance to any competitor of Gaussian, Inc.  The licensee
 of this program is prohibited from giving any competitor of
 Gaussian, Inc. access to this program.  By using this program,
 the user acknowledges that Gaussian, Inc. is engaged in the
 business of creating and licensing software in the field of
 computational chemistry and represents and warrants to the
 licensee that it is not a competitor of Gaussian, Inc. and that
 it will not use this program in any manner prohibited above.
 ---------------------------------------------------------------
  

 Cite this work as:
 Gaussian 09, Revision E.01,
 M. J. Frisch, G. W. Trucks, H. B. Schlegel, G. E. Scuseria, 
 M. A. Robb, J. R. Cheeseman, G. Scalmani, V. Barone, B. Mennucci, 
 G. A. Petersson, H. Nakatsuji, M. Caricato, X. Li, H. P. Hratchian, 
 A. F. Izmaylov, J. Bloino, G. Zheng, J. L. Sonnenberg, M. Hada, 
 M. Ehara, K. Toyota, R. Fukuda, J. Hasegawa, M. Ishida, T. Nakajima, 
 Y. Honda, O. Kitao, H. Nakai, T. Vreven, J. A. Montgomery, Jr., 
 J. E. Peralta, F. Ogliaro, M. Bearpark, J. J. Heyd, E. Brothers, 
 K. N. Kudin, V. N. Staroverov, T. Keith, R. Kobayashi, J. Normand, 
 K. Raghavachari, A. Rendell, J. C. Burant, S. S. Iyengar, J. Tomasi, 
 M. Cossi, N. Rega, J. M. Millam, M. Klene, J. E. Knox, J. B. Cross, 
 V. Bakken, C. Adamo, J. Jaramillo, R. Gomperts, R. E. Stratmann, 
 O. Yazyev, A. J. Austin, R. Cammi, C. Pomelli, J. W. Ochterski, 
 R. L. Martin, K. Morokuma, V. G. Zakrzewski, G. A. Voth, 
 P. Salvador, J. J. Dannenberg, S. Dapprich, A. D. Daniels, 
 O. Farkas, J. B. Foresman, J. V. Ortiz, J. Cioslowski, 
 and D. J. Fox, Gaussian, Inc., Wallingford CT, 2013.
 
 ******************************************
 Gaussian 09:  EM64L-G09RevE.01 30-Nov-2015
                 3-Sep-2021 
 ******************************************
 %nprocshared=6
 Will use up to    6 processors via shared memory.
 %mem=10GB
 %chk=TST_GAS_TPSSh.chk
 ----------------------------------------------------------------------
 #p opt=(calcfc,qst3,cartesian) freq TPSSh/gen int=acc2e=12 scf=(novara
 cc,noincfock)
 ----------------------------------------------------------------------
 1/5=1,10=4,14=-1,18=20,26=3,27=203,38=1/1,3;
 2/9=110,12=2,17=6,18=5,40=1/2;
 3/5=7,11=2,16=1,25=1,30=1,71=2,74=-35,140=1/1,2,3;
 4//1;
 5/5=100002,38=1,87=12/2;
 8/6=4,10=90,11=11,87=12/1;
 11/6=1,8=1,9=11,15=111,16=1,87=12/1,2,10;
 10/6=1,13=1,87=12/2;
 6/7=2,8=2,9=2,10=2,28=1/1;
 7/10=1,18=20,25=1,87=12/1,2,3,16;
 1/5=1,10=4,14=-1,18=20,26=3,27=203/3(2);
 2/9=110/2;
 99//99;
 2/9=110/2;
 3/5=7,6=1,11=2,16=1,25=1,30=1,71=1,74=-35,82=7/1,2,3;
 4/5=5,16=3,69=1/1;
 5/5=100002,38=1,87=12/2;
 7/87=12/1,2,3,16;
 1/5=1,14=-1,18=20,26=3,27=203/3(-5);
 2/9=110/2;
 6/7=2,8=2,9=2,10=2,19=2,28=1/1;
 99/9=1/99;
 Leave Link    1 at Fri Sep  3 02:11:30 2021, MaxMem=  1342177280 cpu:         3.0
 (Enter /gpfs/share/home/1801110325/software/g09e01/l101.exe)
 ---------------------
 HY_TPSSh_PC2_OPT_FREQ
 ---------------------
 Symbolic Z-matrix:
 Charge =  0 Multiplicity = 1
 O                    -0.0031    2.2543    0. 
 N                    -1.17913   0.29428   0. 
 C                     0.        0.90033   0. 
 C                     1.22673   0.23034   0. 
 C                    -1.18652  -1.04514   0. 
 C                     1.19445  -1.15219   0. 
 C                    -0.03438  -1.81413   0. 
 H                    -0.9356    2.51804   0. 
 H                     2.15189   0.78934   0. 
 H                    -2.16655  -1.50931   0. 
 H                     2.12058  -1.71371   0. 
 H                    -0.09321  -2.89393   0. 
 
 ---------------------
 PY_TPSSh_PC2_OPT_FREQ
 ---------------------
 Symbolic Z-matrix:
 Charge =  0 Multiplicity = 1
 O                    -0.13962   2.28265   0. 
 N                    -1.13596   0.22965   0. 
 C                     0.        1.06546   0. 
 C                     1.24207   0.3257    0. 
 C                    -1.11753  -1.1295    0. 
 C                     1.26374  -1.03682   0. 
 C                     0.06527  -1.80027   0. 
 H                    -2.0174    0.72451   0. 
 H                     2.14988   0.91238   0. 
 H                    -2.08178  -1.61885   0. 
 H                     2.21603  -1.5547    0. 
 H                     0.08068  -2.87949   0. 
 
 -------------
 TST_GAS_TPSSh
 -------------
 Symbolic Z-matrix:
 Charge =  0 Multiplicity = 1
 O                     0.19538   2.62036   0. 
 N                    -0.98065   0.66034   0. 
 C                     0.17766   1.28023   0. 
 C                     1.42521   0.5964    0. 
 C                    -0.98804  -0.67908   0. 
 C                     1.39293  -0.78613   0. 
 C                     0.1641   -1.44807   0. 
 H                    -1.11326   2.13814   0. 
 H                     2.35037   1.1554    0. 
 H                    -1.96807  -1.14324   0. 
 H                     2.31906  -1.34765   0. 
 H                     0.10527  -2.52787   0. 
 
 NAtoms=     12 NQM=       12 NQMF=       0 NMMI=      0 NMMIF=      0
                NMic=       0 NMicF=      0.
                    Isotopes and Nuclear Properties:
 (Nuclear quadrupole moments (NQMom) in fm**2, nuclear magnetic moments (NMagM)
  in nuclear magnetons)

  Atom         1           2           3           4           5           6           7           8           9          10
 IAtWgt=          16          14          12          12          12          12          12           1           1           1
 AtmWgt=  15.9949146  14.0030740  12.0000000  12.0000000  12.0000000  12.0000000  12.0000000   1.0078250   1.0078250   1.0078250
 NucSpn=           0           2           0           0           0           0           0           1           1           1
 AtZEff=   0.0000000   0.0000000   0.0000000   0.0000000   0.0000000   0.0000000   0.0000000   0.0000000   0.0000000   0.0000000
 NQMom=    0.0000000   2.0440000   0.0000000   0.0000000   0.0000000   0.0000000   0.0000000   0.0000000   0.0000000   0.0000000
 NMagM=    0.0000000   0.4037610   0.0000000   0.0000000   0.0000000   0.0000000   0.0000000   2.7928460   2.7928460   2.7928460
 AtZNuc=   8.0000000   7.0000000   6.0000000   6.0000000   6.0000000   6.0000000   6.0000000   1.0000000   1.0000000   1.0000000

  Atom        11          12
 IAtWgt=           1           1
 AtmWgt=   1.0078250   1.0078250
 NucSpn=           1           1
 AtZEff=   0.0000000   0.0000000
 NQMom=    0.0000000   0.0000000
 NMagM=    2.7928460   2.7928460
 AtZNuc=   1.0000000   1.0000000
 Leave Link  101 at Fri Sep  3 02:11:31 2021, MaxMem=  1342177280 cpu:         1.5
 (Enter /gpfs/share/home/1801110325/software/g09e01/l103.exe)

 GradGradGradGradGradGradGradGradGradGradGradGradGradGradGradGradGradGrad
 Berny optimization.
 Initialization pass.
                           ----------------------------
                           !    Initial Parameters    !
                           ! (Angstroms and Degrees)  !
 --------------------------                            --------------------------
 ! Name  Definition        TS        Reactant  Product Derivative Info.         !
 --------------------------------------------------------------------------------
 ! R1    R(1,3)             1.3402    1.354     1.2252 calculate D2E/DX2 analyti!
 ! R2    R(1,8)             1.3947    0.9691    2.4401 calculate D2E/DX2 analyti!
 ! R3    R(2,3)             1.3137    1.3258    1.4103 calculate D2E/DX2 analyti!
 ! R4    R(2,5)             1.3394    1.3394    1.3593 calculate D2E/DX2 analyti!
 ! R5    R(2,8)             1.4837    2.2371    1.0109 calculate D2E/DX2 analyti!
 ! R6    R(3,4)             1.4227    1.3978    1.4457 calculate D2E/DX2 analyti!
 ! R7    R(4,6)             1.3829    1.3829    1.3627 calculate D2E/DX2 analyti!
 ! R8    R(4,9)             1.0809    1.0809    1.0809 calculate D2E/DX2 analyti!
 ! R9    R(5,7)             1.3852    1.3852    1.3598 calculate D2E/DX2 analyti!
 ! R10   R(5,10)            1.0844    1.0844    1.0813 calculate D2E/DX2 analyti!
 ! R11   R(6,7)             1.3958    1.3958    1.421  calculate D2E/DX2 analyti!
 ! R12   R(6,11)            1.0831    1.0831    1.084  calculate D2E/DX2 analyti!
 ! R13   R(7,12)            1.0814    1.0814    1.0793 calculate D2E/DX2 analyti!
 ! A1    A(3,1,8)          69.0144  105.9241   56.8586 calculate D2E/DX2 analyti!
 ! A2    A(3,2,5)         118.4706  117.5187  125.5678 calculate D2E/DX2 analyti!
 ! A3    A(3,2,8)          66.9736   56.548   114.3445 calculate D2E/DX2 analyti!
 ! A4    A(5,2,8)         174.5558  174.0667  120.0877 calculate D2E/DX2 analyti!
 ! A5    A(1,3,2)         118.9117  117.0711  119.8011 calculate D2E/DX2 analyti!
 ! A6    A(1,3,4)         117.9714  118.773   127.321  calculate D2E/DX2 analyti!
 ! A7    A(2,3,4)         123.1169  124.1559  112.878  calculate D2E/DX2 analyti!
 ! A8    A(3,4,6)         117.3914  117.3042  121.6885 calculate D2E/DX2 analyti!
 ! A9    A(3,4,9)         120.1301  120.2172  116.3499 calculate D2E/DX2 analyti!
 ! A10   A(6,4,9)         122.4786  122.4786  121.9616 calculate D2E/DX2 analyti!
 ! A11   A(2,5,7)         123.4046  123.4046  120.3348 calculate D2E/DX2 analyti!
 ! A12   A(2,5,10)        115.6597  115.6597  116.1309 calculate D2E/DX2 analyti!
 ! A13   A(7,5,10)        120.9357  120.9357  123.5343 calculate D2E/DX2 analyti!
 ! A14   A(4,6,7)         119.6477  119.6477  121.5865 calculate D2E/DX2 analyti!
 ! A15   A(4,6,11)        119.8913  119.8913  119.4494 calculate D2E/DX2 analyti!
 ! A16   A(7,6,11)        120.461   120.461   118.9641 calculate D2E/DX2 analyti!
 ! A17   A(5,7,6)         117.9689  117.9689  117.9444 calculate D2E/DX2 analyti!
 ! A18   A(5,7,12)        120.6026  120.6026  120.3765 calculate D2E/DX2 analyti!
 ! A19   A(6,7,12)        121.4286  121.4286  121.6792 calculate D2E/DX2 analyti!
 ! D1    D(8,1,3,2)         0.0       0.0       0.0    calculate D2E/DX2 analyti!
 ! D2    D(8,1,3,4)       180.0     180.0     180.0    calculate D2E/DX2 analyti!
 ! D3    D(5,2,3,1)       180.0     180.0     180.0    calculate D2E/DX2 analyti!
 ! D4    D(5,2,3,4)         0.0       0.0       0.0    calculate D2E/DX2 analyti!
 ! D5    D(8,2,3,1)         0.0       0.0       0.0    calculate D2E/DX2 analyti!
 ! D6    D(8,2,3,4)       180.0     180.0     180.0    calculate D2E/DX2 analyti!
 ! D7    D(3,2,5,7)         0.0       0.0       0.0    calculate D2E/DX2 analyti!
 ! D8    D(3,2,5,10)      180.0     180.0     180.0    calculate D2E/DX2 analyti!
 ! D9    D(8,2,5,7)       180.0       0.0     180.0    calculate D2E/DX2 analyti!
 ! D10   D(8,2,5,10)        0.0     180.0       0.0    calculate D2E/DX2 analyti!
 ! D11   D(1,3,4,6)       180.0     180.0     180.0    calculate D2E/DX2 analyti!
 ! D12   D(1,3,4,9)         0.0       0.0       0.0    calculate D2E/DX2 analyti!
 ! D13   D(2,3,4,6)         0.0       0.0       0.0    calculate D2E/DX2 analyti!
 ! D14   D(2,3,4,9)       180.0     180.0     180.0    calculate D2E/DX2 analyti!
 ! D15   D(3,4,6,7)         0.0       0.0       0.0    calculate D2E/DX2 analyti!
 ! D16   D(3,4,6,11)      180.0     180.0     180.0    calculate D2E/DX2 analyti!
 ! D17   D(9,4,6,7)       180.0     180.0     180.0    calculate D2E/DX2 analyti!
 ! D18   D(9,4,6,11)        0.0       0.0       0.0    calculate D2E/DX2 analyti!
 ! D19   D(2,5,7,6)         0.0       0.0       0.0    calculate D2E/DX2 analyti!
 ! D20   D(2,5,7,12)      180.0     180.0     180.0    calculate D2E/DX2 analyti!
 ! D21   D(10,5,7,6)      180.0     180.0     180.0    calculate D2E/DX2 analyti!
 ! D22   D(10,5,7,12)       0.0       0.0       0.0    calculate D2E/DX2 analyti!
 ! D23   D(4,6,7,5)         0.0       0.0       0.0    calculate D2E/DX2 analyti!
 ! D24   D(4,6,7,12)      180.0     180.0     180.0    calculate D2E/DX2 analyti!
 ! D25   D(11,6,7,5)      180.0     180.0     180.0    calculate D2E/DX2 analyti!
 ! D26   D(11,6,7,12)       0.0       0.0       0.0    calculate D2E/DX2 analyti!
 --------------------------------------------------------------------------------
 Trust Radius=3.00D-01 FncErr=1.00D-07 GrdErr=1.00D-06
 Number of steps in this run=     68 maximum allowed number of steps=    100.
 Search for a saddle point of order  1.
 GradGradGradGradGradGradGradGradGradGradGradGradGradGradGradGradGradGrad

 Leave Link  103 at Fri Sep  3 02:11:31 2021, MaxMem=  1342177280 cpu:         0.4
 (Enter /gpfs/share/home/1801110325/software/g09e01/l202.exe)
                          Input orientation:                          
 ---------------------------------------------------------------------
 Center     Atomic      Atomic             Coordinates (Angstroms)
 Number     Number       Type             X           Y           Z
 ---------------------------------------------------------------------
      1          8           0        0.195379    2.620359    0.000000
      2          7           0       -0.980646    0.660339    0.000000
      3          6           0        0.177661    1.280227    0.000000
      4          6           0        1.425209    0.596398    0.000000
      5          6           0       -0.988041   -0.679079    0.000000
      6          6           0        1.392930   -0.786129    0.000000
      7          6           0        0.164098   -1.448069    0.000000
      8          1           0       -1.113261    2.138144    0.000000
      9          1           0        2.350373    1.155398    0.000000
     10          1           0       -1.968070   -1.143244    0.000000
     11          1           0        2.319063   -1.347652    0.000000
     12          1           0        0.105271   -2.527866    0.000000
 ---------------------------------------------------------------------
                    Distance matrix (angstroms):
                    1          2          3          4          5
     1  O    0.000000
     2  N    2.285763   0.000000
     3  C    1.340249   1.313749   0.000000
     4  C    2.368312   2.406705   1.422673   0.000000
     5  C    3.505249   1.339438   2.279856   2.729582   0.000000
     6  C    3.610857   2.779592   2.397229   1.382904   2.383376
     7  C    4.068548   2.399130   2.728330   2.402134   1.385197
     8  H    1.394657   1.483744   1.550000   2.969985   2.820005
     9  H    2.605784   3.367606   2.176295   1.080930   3.809241
    10  H    4.341108   2.056190   3.236877   3.813227   1.084392
    11  H    4.500572   3.862655   3.389890   2.139697   3.374008
    12  H    5.149014   3.368066   3.808781   3.391646   2.147870
                    6          7          8          9         10
     6  C    0.000000
     7  C    1.395777   0.000000
     8  H    3.851281   3.806911   0.000000
     9  H    2.164769   3.399682   3.600354   0.000000
    10  H    3.379919   2.153847   3.390901   4.892106   0.000000
    11  H    1.083065   2.157303   4.891996   2.503246   4.292003
    12  H    2.166036   1.081398   4.822497   4.313574   2.493175
                   11         12
    11  H    0.000000
    12  H    2.508741   0.000000
 Stoichiometry    C5H5NO
 Framework group  CS[SG(C5H5NO)]
 Deg. of freedom    21
 Full point group                 CS      NOp   2
 Largest Abelian subgroup         CS      NOp   2
 Largest concise Abelian subgroup C1      NOp   1
                         Standard orientation:                         
 ---------------------------------------------------------------------
 Center     Atomic      Atomic             Coordinates (Angstroms)
 Number     Number       Type             X           Y           Z
 ---------------------------------------------------------------------
      1          8           0        0.033322    2.267322    0.000000
      2          7           0       -1.165446    0.321129    0.000000
      3          6           0       -0.000000    0.927488    0.000000
      4          6           0        1.239501    0.229178    0.000000
      5          6           0       -1.188437   -1.018112    0.000000
      6          6           0        1.191126   -1.152879    0.000000
      7          6           0       -0.045331   -1.800466    0.000000
      8          1           0       -1.280844    1.800379    0.000000
      9          1           0        2.171111    0.777368    0.000000
     10          1           0       -2.173805   -1.470834    0.000000
     11          1           0        2.110658   -1.725148    0.000000
     12          1           0       -0.116727   -2.879504    0.000000
 ---------------------------------------------------------------------
 Rotational constants (GHZ):      5.8036618      2.8193281      1.8975352
 Leave Link  202 at Fri Sep  3 02:11:31 2021, MaxMem=  1342177280 cpu:         1.1
 (Enter /gpfs/share/home/1801110325/software/g09e01/l301.exe)
 General basis read from cards:  (5D, 7F)
 Centers:       8      9     10     11     12
 S 4 1.00
     Exponent=  7.5423000000D+01 Coefficients=  2.4065000000D-03
     Exponent=  1.1350000000D+01 Coefficients=  1.8487000000D-02
     Exponent=  2.5993000000D+00 Coefficients=  8.9742000000D-02
     Exponent=  7.3513000000D-01 Coefficients=  2.8111000000D-01
 S 1 1.00
     Exponent=  2.3167000000D-01 Coefficients=  1.0000000000D+00
 S 1 1.00
     Exponent=  7.4147000000D-02 Coefficients=  1.0000000000D+00
 P 1 1.00
     Exponent=  1.6000000000D+00 Coefficients=  1.0000000000D+00
 P 1 1.00
     Exponent=  4.5000000000D-01 Coefficients=  1.0000000000D+00
 D 1 1.00
     Exponent=  1.2500000000D+00 Coefficients=  1.0000000000D+00
 ****
 Centers:       3      4      5      6      7
 S 7 1.00
     Exponent=  7.8571000000D+03 Coefficients=  5.6825000000D-04
     Exponent=  1.1787000000D+03 Coefficients=  4.3915000000D-03
     Exponent=  2.6832000000D+02 Coefficients=  2.2504000000D-02
     Exponent=  7.5948000000D+01 Coefficients=  8.6653000000D-02
     Exponent=  2.4559000000D+01 Coefficients=  2.4405000000D-01
     Exponent=  8.6212000000D+00 Coefficients=  4.4148000000D-01
     Exponent=  3.1278000000D+00 Coefficients=  3.5332000000D-01
 S 7 1.00
     Exponent=  1.1787000000D+03 Coefficients= -5.9492000000D-07
     Exponent=  2.6832000000D+02 Coefficients= -6.2748000000D-05
     Exponent=  7.5948000000D+01 Coefficients= -7.5773000000D-04
     Exponent=  2.4559000000D+01 Coefficients= -7.3308000000D-03
     Exponent=  8.6212000000D+00 Coefficients= -3.8932000000D-02
     Exponent=  3.1278000000D+00 Coefficients= -8.8908000000D-02
     Exponent=  8.2202000000D-01 Coefficients=  2.1689000000D-01
 S 1 1.00
     Exponent=  3.3017000000D-01 Coefficients=  1.0000000000D+00
 S 1 1.00
     Exponent=  1.1463000000D-01 Coefficients=  1.0000000000D+00
 P 4 1.00
     Exponent=  3.3775000000D+01 Coefficients=  6.0294000000D-03
     Exponent=  7.6766000000D+00 Coefficients=  4.3228000000D-02
     Exponent=  2.2357000000D+00 Coefficients=  1.6301000000D-01
     Exponent=  7.6447000000D-01 Coefficients=  3.6504000000D-01
 P 1 1.00
     Exponent=  2.6232000000D-01 Coefficients=  1.0000000000D+00
 P 1 1.00
     Exponent=  8.4638000000D-02 Coefficients=  1.0000000000D+00
 D 1 1.00
     Exponent=  1.4000000000D+00 Coefficients=  1.0000000000D+00
 D 1 1.00
     Exponent=  4.5000000000D-01 Coefficients=  1.0000000000D+00
 F 1 1.00
     Exponent=  9.5000000000D-01 Coefficients=  1.0000000000D+00
 ****
 Centers:       2
 S 7 1.00
     Exponent=  1.1101000000D+04 Coefficients=  5.4570000000D-04
     Exponent=  1.6653000000D+03 Coefficients=  4.2181000000D-03
     Exponent=  3.7908000000D+02 Coefficients=  2.1645000000D-02
     Exponent=  1.0730000000D+02 Coefficients=  8.3776000000D-02
     Exponent=  3.4747000000D+01 Coefficients=  2.3881000000D-01
     Exponent=  1.2249000000D+01 Coefficients=  4.3994000000D-01
     Exponent=  4.4743000000D+00 Coefficients=  3.6364000000D-01
 S 7 1.00
     Exponent=  1.6653000000D+03 Coefficients= -1.5006000000D-06
     Exponent=  3.7908000000D+02 Coefficients= -5.8753000000D-05
     Exponent=  1.0730000000D+02 Coefficients= -7.7453000000D-04
     Exponent=  3.4747000000D+01 Coefficients= -7.2161000000D-03
     Exponent=  1.2249000000D+01 Coefficients= -3.9338000000D-02
     Exponent=  4.4743000000D+00 Coefficients= -9.0611000000D-02
     Exponent=  1.2404000000D+00 Coefficients=  1.9882000000D-01
 S 1 1.00
     Exponent=  4.8743000000D-01 Coefficients=  1.0000000000D+00
 S 1 1.00
     Exponent=  1.6484000000D-01 Coefficients=  1.0000000000D+00
 P 4 1.00
     Exponent=  4.7934000000D+01 Coefficients=  6.1706000000D-03
     Exponent=  1.0999000000D+01 Coefficients=  4.4260000000D-02
     Exponent=  3.2472000000D+00 Coefficients=  1.6825000000D-01
     Exponent=  1.1114000000D+00 Coefficients=  3.6848000000D-01
 P 1 1.00
     Exponent=  3.7988000000D-01 Coefficients=  1.0000000000D+00
 P 1 1.00
     Exponent=  1.2068000000D-01 Coefficients=  1.0000000000D+00
 D 1 1.00
     Exponent=  1.8000000000D+00 Coefficients=  1.0000000000D+00
 D 1 1.00
     Exponent=  5.5000000000D-01 Coefficients=  1.0000000000D+00
 F 1 1.00
     Exponent=  1.0200000000D+00 Coefficients=  1.0000000000D+00
 ****
 Centers:       1
 S 7 1.00
     Exponent=  1.4782000000D+04 Coefficients=  5.3519000000D-04
     Exponent=  2.2173000000D+03 Coefficients=  4.1375000000D-03
     Exponent=  5.0474000000D+02 Coefficients=  2.1245000000D-02
     Exponent=  1.4287000000D+02 Coefficients=  8.2453000000D-02
     Exponent=  4.6300000000D+01 Coefficients=  2.3671000000D-01
     Exponent=  1.6337000000D+01 Coefficients=  4.4039000000D-01
     Exponent=  5.9828000000D+00 Coefficients=  3.6465000000D-01
 S 7 1.00
     Exponent=  2.2173000000D+03 Coefficients= -1.9275000000D-06
     Exponent=  5.0474000000D+02 Coefficients= -5.7964000000D-05
     Exponent=  1.4287000000D+02 Coefficients= -7.9494000000D-04
     Exponent=  4.6300000000D+01 Coefficients= -7.3125000000D-03
     Exponent=  1.6337000000D+01 Coefficients= -4.0574000000D-02
     Exponent=  5.9828000000D+00 Coefficients= -9.1594000000D-02
     Exponent=  1.6718000000D+00 Coefficients=  2.0940000000D-01
 S 1 1.00
     Exponent=  6.4662000000D-01 Coefficients=  1.0000000000D+00
 S 1 1.00
     Exponent=  2.1669000000D-01 Coefficients=  1.0000000000D+00
 P 4 1.00
     Exponent=  6.0424000000D+01 Coefficients=  6.8949000000D-03
     Exponent=  1.3935000000D+01 Coefficients=  4.9005000000D-02
     Exponent=  4.1531000000D+00 Coefficients=  1.8255000000D-01
     Exponent=  1.4158000000D+00 Coefficients=  3.7633000000D-01
 P 1 1.00
     Exponent=  4.7549000000D-01 Coefficients=  1.0000000000D+00
 P 1 1.00
     Exponent=  1.4529000000D-01 Coefficients=  1.0000000000D+00
 D 1 1.00
     Exponent=  2.2000000000D+00 Coefficients=  1.0000000000D+00
 D 1 1.00
     Exponent=  6.5000000000D-01 Coefficients=  1.0000000000D+00
 F 1 1.00
     Exponent=  1.1000000000D+00 Coefficients=  1.0000000000D+00
 ****
 Ernie: Thresh=  0.10000D-02 Tol=  0.10000D-05 Strict=F.
 Ernie:  7 primitive shells out of 220 were deleted.
 There are   223 symmetry adapted cartesian basis functions of A'  symmetry.
 There are    97 symmetry adapted cartesian basis functions of A"  symmetry.
 There are   190 symmetry adapted basis functions of A'  symmetry.
 There are    90 symmetry adapted basis functions of A"  symmetry.
   280 basis functions,   475 primitive gaussians,   320 cartesian basis functions
    25 alpha electrons       25 beta electrons
       nuclear repulsion energy       276.3935514388 Hartrees.
 IExCor= 2523 DFT=T Ex+Corr=TPSSh ExCW=0 ScaHFX=  0.100000
 ScaDFX=  0.900000  0.900000  1.000000  1.000000 ScalE2=  1.000000  1.000000
 IRadAn=      0 IRanWt=     -1 IRanGd=            0 ICorTp=0 IEmpDi=  4
 NAtoms=   12 NActive=   12 NUniq=   12 SFac= 1.00D+00 NAtFMM=   60 NAOKFM=F Big=F
 Integral buffers will be    131072 words long.
 Raffenetti 2 integral format.
 Two-electron integral symmetry is turned on.
 Leave Link  301 at Fri Sep  3 02:11:32 2021, MaxMem=  1342177280 cpu:         2.5
 (Enter /gpfs/share/home/1801110325/software/g09e01/l302.exe)
 NPDir=0 NMtPBC=     1 NCelOv=     1 NCel=       1 NClECP=     1 NCelD=      1
         NCelK=      1 NCelE2=     1 NClLst=     1 CellRange=     0.0.
 One-electron integrals computed using PRISM.
 NBasis=   280 RedAO= T EigKep=  2.27D-04  NBF=   190    90
 NBsUse=   280 1.00D-06 EigRej= -1.00D+00 NBFU=   190    90
 Precomputing XC quadrature grid using
 IXCGrd= 4 IRadAn=           0 IRanWt=          -1 IRanGd=           0 AccXCQ= 0.00D+00.
 Generated NRdTot=       0 NPtTot=           0 NUsed=           0 NTot=          32
 NSgBfM=   320   320   320   320   320 MxSgAt=    12 MxSgA2=    12.
 Leave Link  302 at Fri Sep  3 02:11:32 2021, MaxMem=  1342177280 cpu:         1.3
 (Enter /gpfs/share/home/1801110325/software/g09e01/l303.exe)
 DipDrv:  MaxL=1.
 Leave Link  303 at Fri Sep  3 02:11:33 2021, MaxMem=  1342177280 cpu:         2.8
 (Enter /gpfs/share/home/1801110325/software/g09e01/l401.exe)
 ExpMin= 7.41D-02 ExpMax= 1.48D+04 ExpMxC= 5.05D+02 IAcc=2 IRadAn=         4 AccDes= 0.00D+00
 Harris functional with IExCor= 1009 and IRadAn=       4 diagonalized for initial guess.
 HarFok:  IExCor= 1009 AccDes= 0.00D+00 IRadAn=         4 IDoV= 1 UseB2=F ITyADJ=14
 ICtDFT=  3500011 ScaDFX=  1.000000  1.000000  1.000000  1.000000
 FoFCou: FMM=F IPFlag=           0 FMFlag=      100000 FMFlg1=           0
         NFxFlg=           0 DoJE=T BraDBF=F KetDBF=T FulRan=T
         wScrn=  0.000000 ICntrl=     500 IOpCl=  0 I1Cent=   200000004 NGrid=           0
         NMat0=    1 NMatS0=      1 NMatT0=    0 NMatD0=    1 NMtDS0=    0 NMtDT0=    0
 Petite list used in FoFCou.
 Harris En= -323.296330658902    
 JPrj=0 DoOrth=F DoCkMO=F.
 Initial guess orbital symmetries:
       Occupied  (A') (A') (A') (A') (A') (A') (A') (A') (A') (A')
                 (A') (A') (A') (A') (A') (A') (A') (A') (A") (A')
                 (A") (A') (A') (A") (A")
       Virtual   (A") (A") (A') (A') (A") (A') (A') (A') (A') (A')
                 (A') (A') (A") (A') (A') (A") (A") (A') (A') (A')
                 (A') (A') (A') (A") (A") (A') (A') (A') (A') (A')
                 (A') (A') (A") (A") (A') (A') (A') (A') (A') (A')
                 (A') (A') (A') (A") (A') (A") (A') (A") (A') (A")
                 (A') (A') (A') (A") (A") (A') (A") (A') (A') (A')
                 (A') (A") (A') (A') (A") (A') (A') (A") (A') (A")
                 (A') (A") (A") (A') (A") (A') (A') (A") (A') (A")
                 (A') (A") (A') (A') (A") (A') (A") (A') (A') (A")
                 (A') (A") (A') (A') (A') (A') (A') (A") (A') (A')
                 (A') (A') (A") (A') (A') (A') (A") (A') (A') (A')
                 (A') (A") (A') (A') (A') (A') (A") (A') (A') (A')
                 (A') (A") (A") (A') (A') (A") (A') (A") (A") (A")
                 (A') (A") (A') (A') (A") (A') (A') (A') (A") (A')
                 (A') (A') (A') (A") (A') (A") (A") (A') (A') (A')
                 (A') (A') (A') (A") (A") (A") (A") (A') (A') (A")
                 (A") (A') (A") (A') (A') (A") (A') (A') (A") (A')
                 (A") (A') (A") (A') (A') (A") (A') (A") (A") (A")
                 (A') (A") (A') (A') (A") (A") (A') (A") (A') (A")
                 (A") (A') (A") (A') (A') (A') (A") (A") (A') (A")
                 (A') (A') (A") (A") (A') (A') (A') (A") (A') (A')
                 (A') (A') (A") (A") (A') (A') (A") (A') (A") (A')
                 (A") (A') (A') (A") (A') (A') (A') (A") (A') (A')
                 (A') (A") (A') (A') (A') (A') (A') (A') (A") (A')
                 (A') (A') (A") (A') (A') (A') (A') (A') (A') (A')
                 (A') (A') (A') (A') (A')
 The electronic state of the initial guess is 1-A'.
 Leave Link  401 at Fri Sep  3 02:11:33 2021, MaxMem=  1342177280 cpu:         3.9
 (Enter /gpfs/share/home/1801110325/software/g09e01/l502.exe)
 Closed shell SCF:
 Using DIIS extrapolation, IDIIS=  1040.
 Integral symmetry usage will be decided dynamically.
 Keep R1 ints in memory in symmetry-blocked form, NReq=1167783638.
 IVT=      330098 IEndB=      330098 NGot=  1342177280 MDV=   948231393
 LenX=   948231393 LenY=   948128552
 Requested convergence on RMS density matrix=1.00D-08 within 128 cycles.
 Requested convergence on MAX density matrix=1.00D-06.
 Requested convergence on             energy=1.00D-06.
 No special actions if energy rises.
 FoFCou: FMM=F IPFlag=           0 FMFlag=           0 FMFlg1=           0
         NFxFlg=           0 DoJE=F BraDBF=F KetDBF=F FulRan=T
         wScrn=  0.000000 ICntrl=     600 IOpCl=  0 I1Cent=           0 NGrid=           0
         NMat0=    1 NMatS0=  39340 NMatT0=    0 NMatD0=    1 NMtDS0=    0 NMtDT0=    0
 Petite list used in FoFCou.

 Cycle   1  Pass 1  IDiag  1:
 E= -323.434918202042    
 DIIS: error= 2.26D-02 at cycle   1 NSaved=   1.
 NSaved= 1 IEnMin= 1 EnMin= -323.434918202042     IErMin= 1 ErrMin= 2.26D-02
 ErrMax= 2.26D-02  0.00D+00 EMaxC= 1.00D-01 BMatC= 1.69D-01 BMatP= 1.69D-01
 IDIUse=3 WtCom= 7.74D-01 WtEn= 2.26D-01
 Coeff-Com:  0.100D+01
 Coeff-En:   0.100D+01
 Coeff:      0.100D+01
 Gap=     0.117 Goal=   None    Shift=    0.000
 GapD=    0.117 DampG=1.000 DampE=0.500 DampFc=0.5000 IDamp=-1.
 Damping current iteration by 5.00D-01
 RMSDP=2.96D-03 MaxDP=1.21D-01              OVMax= 2.35D-01

 Cycle   2  Pass 1  IDiag  1:
 E= -323.465244699617     Delta-E=       -0.030326497575 Rises=F Damp=T
 DIIS: error= 9.84D-03 at cycle   2 NSaved=   2.
 NSaved= 2 IEnMin= 2 EnMin= -323.465244699617     IErMin= 2 ErrMin= 9.84D-03
 ErrMax= 9.84D-03  0.00D+00 EMaxC= 1.00D-01 BMatC= 3.91D-02 BMatP= 1.69D-01
 IDIUse=3 WtCom= 9.02D-01 WtEn= 9.84D-02
 Coeff-Com:  0.247D+00 0.753D+00
 Coeff-En:   0.399D+00 0.601D+00
 Coeff:      0.262D+00 0.738D+00
 Gap=     0.186 Goal=   None    Shift=    0.000
 RMSDP=1.06D-03 MaxDP=3.66D-02 DE=-3.03D-02 OVMax= 2.24D-01

 Cycle   3  Pass 1  IDiag  1:
 E= -323.537599214425     Delta-E=       -0.072354514808 Rises=F Damp=F
 DIIS: error= 1.42D-02 at cycle   3 NSaved=   3.
 NSaved= 3 IEnMin= 3 EnMin= -323.537599214425     IErMin= 2 ErrMin= 9.84D-03
 ErrMax= 1.42D-02  0.00D+00 EMaxC= 1.00D-01 BMatC= 5.71D-02 BMatP= 3.91D-02
 IDIUse=2 WtCom= 0.00D+00 WtEn= 1.00D+00
 Coeff-En:   0.000D+00 0.143D+00 0.857D+00
 Coeff:      0.000D+00 0.143D+00 0.857D+00
 Gap=     0.141 Goal=   None    Shift=    0.000
 RMSDP=1.85D-03 MaxDP=7.70D-02 DE=-7.24D-02 OVMax= 2.80D-01

 Cycle   4  Pass 1  IDiag  1:
 E= -323.295430883299     Delta-E=        0.242168331125 Rises=F Damp=F
 DIIS: error= 3.58D-02 at cycle   4 NSaved=   4.
 NSaved= 4 IEnMin= 3 EnMin= -323.537599214425     IErMin= 2 ErrMin= 9.84D-03
 ErrMax= 3.58D-02  0.00D+00 EMaxC= 1.00D-01 BMatC= 3.42D-01 BMatP= 3.91D-02
 IDIUse=2 WtCom= 0.00D+00 WtEn= 1.00D+00
 Coeff-En:   0.000D+00 0.000D+00 0.777D+00 0.223D+00
 Coeff:      0.000D+00 0.000D+00 0.777D+00 0.223D+00
 Gap=     0.160 Goal=   None    Shift=    0.000
 RMSDP=9.89D-04 MaxDP=4.58D-02 DE= 2.42D-01 OVMax= 1.67D-01

 Cycle   5  Pass 1  IDiag  1:
 E= -323.566021300789     Delta-E=       -0.270590417490 Rises=F Damp=F
 DIIS: error= 8.92D-03 at cycle   5 NSaved=   5.
 NSaved= 5 IEnMin= 5 EnMin= -323.566021300789     IErMin= 5 ErrMin= 8.92D-03
 ErrMax= 8.92D-03  0.00D+00 EMaxC= 1.00D-01 BMatC= 2.51D-02 BMatP= 3.91D-02
 IDIUse=3 WtCom= 9.11D-01 WtEn= 8.92D-02
 Coeff-Com:  0.528D-02 0.326D-01 0.383D+00-0.103D-01 0.589D+00
 Coeff-En:   0.000D+00 0.000D+00 0.359D+00 0.000D+00 0.641D+00
 Coeff:      0.481D-02 0.297D-01 0.381D+00-0.939D-02 0.594D+00
 Gap=     0.165 Goal=   None    Shift=    0.000
 RMSDP=3.88D-04 MaxDP=2.00D-02 DE=-2.71D-01 OVMax= 5.14D-02

 Cycle   6  Pass 1  IDiag  1:
 E= -323.587072184951     Delta-E=       -0.021050884161 Rises=F Damp=F
 DIIS: error= 2.14D-03 at cycle   6 NSaved=   6.
 NSaved= 6 IEnMin= 6 EnMin= -323.587072184951     IErMin= 6 ErrMin= 2.14D-03
 ErrMax= 2.14D-03  0.00D+00 EMaxC= 1.00D-01 BMatC= 9.45D-04 BMatP= 2.51D-02
 IDIUse=3 WtCom= 9.79D-01 WtEn= 2.14D-02
 Coeff-Com: -0.679D-02 0.153D-01 0.169D+00-0.577D-01 0.449D+00 0.431D+00
 Coeff-En:   0.000D+00 0.000D+00 0.000D+00 0.000D+00 0.000D+00 0.100D+01
 Coeff:     -0.665D-02 0.150D-01 0.165D+00-0.565D-01 0.440D+00 0.444D+00
 Gap=     0.166 Goal=   None    Shift=    0.000
 RMSDP=8.55D-05 MaxDP=3.05D-03 DE=-2.11D-02 OVMax= 1.36D-02

 Cycle   7  Pass 1  IDiag  1:
 E= -323.588038741030     Delta-E=       -0.000966556079 Rises=F Damp=F
 DIIS: error= 2.66D-04 at cycle   7 NSaved=   7.
 NSaved= 7 IEnMin= 7 EnMin= -323.588038741030     IErMin= 7 ErrMin= 2.66D-04
 ErrMax= 2.66D-04  0.00D+00 EMaxC= 1.00D-01 BMatC= 1.71D-05 BMatP= 9.45D-04
 IDIUse=3 WtCom= 9.97D-01 WtEn= 2.66D-03
 Coeff-Com: -0.148D-02 0.230D-02 0.558D-01-0.199D-01 0.141D+00 0.166D+00
 Coeff-Com:  0.656D+00
 Coeff-En:   0.000D+00 0.000D+00 0.000D+00 0.000D+00 0.000D+00 0.000D+00
 Coeff-En:   0.100D+01
 Coeff:     -0.147D-02 0.230D-02 0.556D-01-0.199D-01 0.141D+00 0.166D+00
 Coeff:      0.657D+00
 Gap=     0.167 Goal=   None    Shift=    0.000
 RMSDP=1.19D-05 MaxDP=4.86D-04 DE=-9.67D-04 OVMax= 2.10D-03

 Cycle   8  Pass 1  IDiag  1:
 E= -323.588052569683     Delta-E=       -0.000013828653 Rises=F Damp=F
 DIIS: error= 1.07D-04 at cycle   8 NSaved=   8.
 NSaved= 8 IEnMin= 8 EnMin= -323.588052569683     IErMin= 8 ErrMin= 1.07D-04
 ErrMax= 1.07D-04  0.00D+00 EMaxC= 1.00D-01 BMatC= 3.35D-06 BMatP= 1.71D-05
 IDIUse=3 WtCom= 9.99D-01 WtEn= 1.07D-03
 Coeff-Com:  0.465D-03-0.184D-02 0.109D-01-0.317D-02 0.189D-01 0.350D-01
 Coeff-Com:  0.425D+00 0.514D+00
 Coeff-En:   0.000D+00 0.000D+00 0.000D+00 0.000D+00 0.000D+00 0.000D+00
 Coeff-En:   0.179D-01 0.982D+00
 Coeff:      0.465D-03-0.184D-02 0.109D-01-0.317D-02 0.189D-01 0.350D-01
 Coeff:      0.425D+00 0.515D+00
 Gap=     0.167 Goal=   None    Shift=    0.000
 RMSDP=4.51D-06 MaxDP=1.99D-04 DE=-1.38D-05 OVMax= 6.19D-04

 Cycle   9  Pass 1  IDiag  1:
 E= -323.588055459965     Delta-E=       -0.000002890282 Rises=F Damp=F
 DIIS: error= 2.98D-05 at cycle   9 NSaved=   9.
 NSaved= 9 IEnMin= 9 EnMin= -323.588055459965     IErMin= 9 ErrMin= 2.98D-05
 ErrMax= 2.98D-05  0.00D+00 EMaxC= 1.00D-01 BMatC= 9.17D-08 BMatP= 3.35D-06
 IDIUse=1 WtCom= 1.00D+00 WtEn= 0.00D+00
 Coeff-Com:  0.297D-03-0.877D-03 0.378D-02-0.111D-02 0.521D-02 0.136D-01
 Coeff-Com:  0.197D+00 0.271D+00 0.512D+00
 Coeff:      0.297D-03-0.877D-03 0.378D-02-0.111D-02 0.521D-02 0.136D-01
 Coeff:      0.197D+00 0.271D+00 0.512D+00
 Gap=     0.167 Goal=   None    Shift=    0.000
 RMSDP=1.19D-06 MaxDP=5.23D-05 DE=-2.89D-06 OVMax= 2.17D-04

 Cycle  10  Pass 1  IDiag  1:
 E= -323.588055541587     Delta-E=       -0.000000081622 Rises=F Damp=F
 DIIS: error= 1.43D-05 at cycle  10 NSaved=  10.
 NSaved=10 IEnMin=10 EnMin= -323.588055541587     IErMin=10 ErrMin= 1.43D-05
 ErrMax= 1.43D-05  0.00D+00 EMaxC= 1.00D-01 BMatC= 1.93D-08 BMatP= 9.17D-08
 IDIUse=1 WtCom= 1.00D+00 WtEn= 0.00D+00
 Coeff-Com:  0.995D-04-0.181D-03-0.218D-03 0.741D-04-0.140D-02 0.805D-03
 Coeff-Com:  0.312D-01 0.603D-01 0.333D+00 0.577D+00
 Coeff:      0.995D-04-0.181D-03-0.218D-03 0.741D-04-0.140D-02 0.805D-03
 Coeff:      0.312D-01 0.603D-01 0.333D+00 0.577D+00
 Gap=     0.167 Goal=   None    Shift=    0.000
 RMSDP=4.08D-07 MaxDP=1.62D-05 DE=-8.16D-08 OVMax= 6.27D-05

 Cycle  11  Pass 1  IDiag  1:
 E= -323.588055563511     Delta-E=       -0.000000021923 Rises=F Damp=F
 DIIS: error= 9.31D-07 at cycle  11 NSaved=  11.
 NSaved=11 IEnMin=11 EnMin= -323.588055563511     IErMin=11 ErrMin= 9.31D-07
 ErrMax= 9.31D-07  0.00D+00 EMaxC= 1.00D-01 BMatC= 2.78D-10 BMatP= 1.93D-08
 IDIUse=1 WtCom= 1.00D+00 WtEn= 0.00D+00
 Coeff-Com:  0.231D-04-0.399D-04-0.141D-03 0.483D-04-0.523D-03 0.750D-05
 Coeff-Com:  0.616D-02 0.145D-01 0.983D-01 0.205D+00 0.677D+00
 Coeff:      0.231D-04-0.399D-04-0.141D-03 0.483D-04-0.523D-03 0.750D-05
 Coeff:      0.616D-02 0.145D-01 0.983D-01 0.205D+00 0.677D+00
 Gap=     0.167 Goal=   None    Shift=    0.000
 RMSDP=5.83D-08 MaxDP=2.99D-06 DE=-2.19D-08 OVMax= 5.68D-06

 Cycle  12  Pass 1  IDiag  1:
 E= -323.588055563707     Delta-E=       -0.000000000196 Rises=F Damp=F
 DIIS: error= 6.13D-07 at cycle  12 NSaved=  12.
 NSaved=12 IEnMin=12 EnMin= -323.588055563707     IErMin=12 ErrMin= 6.13D-07
 ErrMax= 6.13D-07  0.00D+00 EMaxC= 1.00D-01 BMatC= 7.18D-11 BMatP= 2.78D-10
 IDIUse=1 WtCom= 1.00D+00 WtEn= 0.00D+00
 Coeff-Com:  0.410D-05-0.746D-05-0.736D-04 0.243D-04-0.198D-03-0.759D-04
 Coeff-Com:  0.737D-03 0.310D-02 0.292D-01 0.713D-01 0.401D+00 0.495D+00
 Coeff:      0.410D-05-0.746D-05-0.736D-04 0.243D-04-0.198D-03-0.759D-04
 Coeff:      0.737D-03 0.310D-02 0.292D-01 0.713D-01 0.401D+00 0.495D+00
 Gap=     0.167 Goal=   None    Shift=    0.000
 RMSDP=2.17D-08 MaxDP=1.30D-06 DE=-1.96D-10 OVMax= 2.40D-06

 Cycle  13  Pass 1  IDiag  1:
 E= -323.588055563787     Delta-E=       -0.000000000080 Rises=F Damp=F
 DIIS: error= 8.93D-08 at cycle  13 NSaved=  13.
 NSaved=13 IEnMin=13 EnMin= -323.588055563787     IErMin=13 ErrMin= 8.93D-08
 ErrMax= 8.93D-08  0.00D+00 EMaxC= 1.00D-01 BMatC= 2.00D-12 BMatP= 7.18D-11
 IDIUse=1 WtCom= 1.00D+00 WtEn= 0.00D+00
 Coeff-Com: -0.167D-05 0.261D-05-0.817D-05 0.233D-05 0.331D-06-0.185D-04
 Coeff-Com: -0.538D-03-0.848D-03-0.277D-02-0.371D-02 0.425D-01 0.144D+00
 Coeff-Com:  0.821D+00
 Coeff:     -0.167D-05 0.261D-05-0.817D-05 0.233D-05 0.331D-06-0.185D-04
 Coeff:     -0.538D-03-0.848D-03-0.277D-02-0.371D-02 0.425D-01 0.144D+00
 Coeff:      0.821D+00
 Gap=     0.167 Goal=   None    Shift=    0.000
 RMSDP=5.32D-09 MaxDP=1.66D-07 DE=-8.04D-11 OVMax= 5.30D-07

 SCF Done:  E(RTPSSh) =  -323.588055564     A.U. after   13 cycles
            NFock= 13  Conv=0.53D-08     -V/T= 2.0045
 KE= 3.221231058611D+02 PE=-1.307426948220D+03 EE= 3.853222353561D+02
 Leave Link  502 at Fri Sep  3 02:12:07 2021, MaxMem=  1342177280 cpu:       178.1
 (Enter /gpfs/share/home/1801110325/software/g09e01/l801.exe)
 DoSCS=F DFT=T ScalE2(SS,OS)=  1.000000  1.000000
 Range of M.O.s used for correlation:     1   280
 NBasis=   280 NAE=    25 NBE=    25 NFC=     0 NFV=     0
 NROrb=    280 NOA=    25 NOB=    25 NVA=   255 NVB=   255

 **** Warning!!: The largest alpha MO coefficient is  0.19836748D+02

 Leave Link  801 at Fri Sep  3 02:12:08 2021, MaxMem=  1342177280 cpu:         0.1
 (Enter /gpfs/share/home/1801110325/software/g09e01/l1101.exe)
 Using compressed storage, NAtomX=    12.
 Will process     13 centers per pass.
 Leave Link 1101 at Fri Sep  3 02:12:08 2021, MaxMem=  1342177280 cpu:         2.0
 (Enter /gpfs/share/home/1801110325/software/g09e01/l1102.exe)
 Symmetrizing basis deriv contribution to polar:
 IMax=3 JMax=2 DiffMx= 0.00D+00
 Leave Link 1102 at Fri Sep  3 02:12:08 2021, MaxMem=  1342177280 cpu:         0.2
 (Enter /gpfs/share/home/1801110325/software/g09e01/l1110.exe)
 Forming Gx(P) for the SCF density, NAtomX=    12.
 Integral derivatives from FoFJK, PRISM(SPDF).
 Do as many integral derivatives as possible in FoFJK.
 G2DrvN: MDV=    1342177080.
 G2DrvN: will do    13 centers at a time, making    1 passes.
 Calling FoFCou, ICntrl=  3107 FMM=F I1Cent=   0 AccDes= 1.00D-12.
 FoFJK:  IHMeth= 1 ICntrl=    3107 DoSepK=F KAlg= 0 I1Cent=   0 FoldK=F
 IRaf=         0 NMat=   1 IRICut=       1 DoRegI=T DoRafI=F ISym2E= 1.
 FoFCou: FMM=F IPFlag=           0 FMFlag=      100000 FMFlg1=           0
         NFxFlg=           0 DoJE=F BraDBF=F KetDBF=F FulRan=T
         wScrn=  0.000000 ICntrl=    3107 IOpCl=  0 I1Cent=           0 NGrid=           0
         NMat0=    1 NMatS0=      1 NMatT0=    0 NMatD0=    1 NMtDS0=    0 NMtDT0=    0
 Petite list used in FoFCou.
 End of G2Drv F.D. properties file   721 does not exist.
 End of G2Drv F.D. properties file   722 does not exist.
 End of G2Drv F.D. properties file   788 does not exist.
 Leave Link 1110 at Fri Sep  3 02:13:04 2021, MaxMem=  1342177280 cpu:       334.0
 (Enter /gpfs/share/home/1801110325/software/g09e01/l1002.exe)
 Minotr:  Closed shell wavefunction.
          IDoAtm=111111111111
          Direct CPHF calculation.
          Differentiating once with respect to nuclear coordinates.
          Using symmetry in CPHF.
          Requested convergence is 1.0D-08 RMS, and 1.0D-07 maximum.
          Secondary convergence is 1.0D-12 RMS, and 1.0D-12 maximum.
          NewPWx=T KeepS1=F KeepF1=F KeepIn=T MapXYZ=F SortEE=F KeepMc=T.
          MDV=    1342176876 using IRadAn=       2.
 Generate precomputed XC quadrature information.
 Keep R1 ints in memory in symmetry-blocked form, NReq=1167458725.
 FoFCou: FMM=F IPFlag=           0 FMFlag=           0 FMFlg1=           0
         NFxFlg=           0 DoJE=F BraDBF=F KetDBF=F FulRan=T
         wScrn=  0.000000 ICntrl=     600 IOpCl=  0 I1Cent=           0 NGrid=           0
         NMat0=    1 NMatS0=  39340 NMatT0=    0 NMatD0=    1 NMtDS0=    0 NMtDT0=    0
 Petite list used in FoFCou.
          Solving linear equations simultaneously, MaxMat=       0.
          There are    39 degrees of freedom in the 1st order CPHF.  IDoFFX=6 NUNeed=     0.
     33 vectors produced by pass  0 Test12= 1.63D-14 2.56D-09 XBig12= 1.60D-01 1.42D-01.
 AX will form    33 AO Fock derivatives at one time.
     33 vectors produced by pass  1 Test12= 1.63D-14 2.56D-09 XBig12= 4.00D-02 7.40D-02.
     33 vectors produced by pass  2 Test12= 1.63D-14 2.56D-09 XBig12= 3.68D-04 3.09D-03.
     33 vectors produced by pass  3 Test12= 1.63D-14 2.56D-09 XBig12= 2.20D-06 1.90D-04.
     33 vectors produced by pass  4 Test12= 1.63D-14 2.56D-09 XBig12= 5.03D-09 7.71D-06.
     27 vectors produced by pass  5 Test12= 1.63D-14 2.56D-09 XBig12= 7.24D-12 4.83D-07.
      9 vectors produced by pass  6 Test12= 1.63D-14 2.56D-09 XBig12= 6.96D-15 9.33D-09.
 InvSVY:  IOpt=1 It=  1 EMax= 1.55D-15
 Solved reduced A of dimension   201 with    33 vectors.
 End of Minotr F.D. properties file   721 does not exist.
 End of Minotr F.D. properties file   722 does not exist.
 End of Minotr F.D. properties file   788 does not exist.
 Leave Link 1002 at Fri Sep  3 02:14:43 2021, MaxMem=  1342177280 cpu:       592.9
 (Enter /gpfs/share/home/1801110325/software/g09e01/l601.exe)
 Copying SCF densities to generalized density rwf, IOpCl= 0 IROHF=0.

 **********************************************************************

            Population analysis using the SCF density.

 **********************************************************************

 Orbital symmetries:
       Occupied  (A') (A') (A') (A') (A') (A') (A') (A') (A') (A')
                 (A') (A') (A') (A') (A') (A') (A") (A') (A') (A')
                 (A") (A') (A') (A") (A")
       Virtual   (A") (A") (A') (A') (A') (A') (A') (A") (A') (A')
                 (A') (A") (A') (A') (A") (A') (A") (A') (A') (A")
                 (A') (A') (A") (A') (A') (A') (A') (A') (A') (A')
                 (A') (A") (A') (A") (A') (A') (A') (A') (A') (A')
                 (A') (A') (A") (A') (A') (A') (A") (A') (A") (A")
                 (A') (A') (A') (A") (A") (A") (A') (A') (A') (A')
                 (A') (A") (A') (A') (A") (A') (A') (A') (A") (A')
                 (A") (A") (A") (A') (A") (A') (A") (A') (A') (A')
                 (A") (A") (A') (A') (A") (A') (A") (A') (A') (A')
                 (A") (A") (A') (A') (A') (A') (A') (A") (A') (A')
                 (A') (A') (A") (A') (A') (A') (A") (A') (A') (A')
                 (A") (A') (A') (A') (A') (A') (A") (A') (A') (A')
                 (A') (A") (A') (A") (A') (A") (A') (A") (A") (A')
                 (A") (A") (A') (A") (A') (A') (A') (A") (A') (A')
                 (A') (A') (A') (A") (A') (A") (A') (A") (A') (A')
                 (A') (A') (A") (A") (A') (A") (A") (A') (A') (A")
                 (A") (A') (A") (A') (A') (A") (A') (A") (A') (A')
                 (A") (A') (A") (A") (A') (A') (A') (A") (A") (A")
                 (A") (A') (A') (A') (A") (A") (A') (A") (A") (A")
                 (A') (A") (A') (A') (A') (A') (A") (A") (A') (A")
                 (A') (A") (A') (A") (A') (A') (A') (A") (A') (A')
                 (A') (A') (A") (A") (A') (A') (A") (A") (A') (A')
                 (A') (A") (A') (A') (A') (A") (A") (A') (A') (A')
                 (A') (A") (A') (A') (A') (A') (A') (A') (A") (A')
                 (A') (A') (A") (A') (A') (A') (A') (A') (A') (A')
                 (A') (A') (A') (A') (A')
 The electronic state is 1-A'.
 Alpha  occ. eigenvalues --  -19.06314 -14.28595 -10.21430 -10.17622 -10.14589
 Alpha  occ. eigenvalues --  -10.13264 -10.13037  -1.02669  -0.93158  -0.80491
 Alpha  occ. eigenvalues --   -0.74179  -0.65232  -0.60782  -0.52897  -0.49737
 Alpha  occ. eigenvalues --   -0.46130  -0.43310  -0.42239  -0.41949  -0.37369
 Alpha  occ. eigenvalues --   -0.33448  -0.32218  -0.30567  -0.29923  -0.22801
 Alpha virt. eigenvalues --   -0.06130  -0.02613  -0.00857   0.02018   0.03958
 Alpha virt. eigenvalues --    0.05568   0.07792   0.10794   0.11682   0.14156
 Alpha virt. eigenvalues --    0.15187   0.15330   0.17027   0.17699   0.19330
 Alpha virt. eigenvalues --    0.19722   0.20368   0.23784   0.24371   0.26529
 Alpha virt. eigenvalues --    0.26785   0.28649   0.28664   0.29347   0.30345
 Alpha virt. eigenvalues --    0.32657   0.33536   0.35546   0.35798   0.38652
 Alpha virt. eigenvalues --    0.42173   0.42298   0.42460   0.43906   0.44365
 Alpha virt. eigenvalues --    0.48531   0.50710   0.51579   0.54726   0.58356
 Alpha virt. eigenvalues --    0.59195   0.61448   0.62980   0.64096   0.65612
 Alpha virt. eigenvalues --    0.67302   0.68221   0.72639   0.75378   0.78572
 Alpha virt. eigenvalues --    0.80191   0.87683   0.89181   0.89362   0.92693
 Alpha virt. eigenvalues --    0.94310   0.94815   0.95988   0.97867   0.99932
 Alpha virt. eigenvalues --    1.02059   1.07709   1.08023   1.09735   1.13022
 Alpha virt. eigenvalues --    1.14818   1.15079   1.17171   1.19934   1.21017
 Alpha virt. eigenvalues --    1.21638   1.24792   1.26665   1.26703   1.28706
 Alpha virt. eigenvalues --    1.35014   1.39998   1.40051   1.41384   1.48070
 Alpha virt. eigenvalues --    1.48825   1.50201   1.50787   1.54233   1.55617
 Alpha virt. eigenvalues --    1.56217   1.59551   1.61737   1.63886   1.65633
 Alpha virt. eigenvalues --    1.66126   1.68755   1.69857   1.75729   1.76780
 Alpha virt. eigenvalues --    1.76897   1.81328   1.84510   1.85389   1.86705
 Alpha virt. eigenvalues --    1.90030   1.91778   1.96368   1.98425   2.00693
 Alpha virt. eigenvalues --    2.08835   2.09308   2.14261   2.16918   2.18853
 Alpha virt. eigenvalues --    2.21167   2.22216   2.25365   2.26933   2.30638
 Alpha virt. eigenvalues --    2.33566   2.39594   2.42939   2.64239   2.68177
 Alpha virt. eigenvalues --    2.84419   2.85180   2.93177   2.95411   3.03418
 Alpha virt. eigenvalues --    3.13500   3.19113   3.19686   3.26724   3.27955
 Alpha virt. eigenvalues --    3.29190   3.31000   3.36712   3.36736   3.41090
 Alpha virt. eigenvalues --    3.42514   3.44548   3.49334   3.49771   3.57955
 Alpha virt. eigenvalues --    3.58770   3.60773   3.63790   3.65058   3.66377
 Alpha virt. eigenvalues --    3.70548   3.75395   3.77609   3.80292   3.86849
 Alpha virt. eigenvalues --    3.92399   3.92801   3.94099   3.94842   3.95476
 Alpha virt. eigenvalues --    3.99098   4.05805   4.07454   4.09215   4.10121
 Alpha virt. eigenvalues --    4.12177   4.13961   4.16980   4.18810   4.19725
 Alpha virt. eigenvalues --    4.20757   4.21879   4.21985   4.23939   4.26918
 Alpha virt. eigenvalues --    4.28644   4.30410   4.32073   4.32408   4.33487
 Alpha virt. eigenvalues --    4.36266   4.37663   4.39432   4.42100   4.43326
 Alpha virt. eigenvalues --    4.47258   4.47377   4.48557   4.50212   4.50812
 Alpha virt. eigenvalues --    4.52642   4.55509   4.55769   4.60493   4.63266
 Alpha virt. eigenvalues --    4.64223   4.68233   4.70197   4.72253   4.74849
 Alpha virt. eigenvalues --    4.77112   4.77624   4.83237   4.85886   4.87611
 Alpha virt. eigenvalues --    4.92295   4.96343   4.96384   5.00863   5.05284
 Alpha virt. eigenvalues --    5.08414   5.12637   5.16722   5.21037   5.24770
 Alpha virt. eigenvalues --    5.27717   5.30154   5.30883   5.35163   5.35462
 Alpha virt. eigenvalues --    5.39603   5.41373   5.43071   5.43486   5.47094
 Alpha virt. eigenvalues --    5.47673   5.50636   5.55050   5.60604   5.62191
 Alpha virt. eigenvalues --    5.62450   5.67338   5.69386   5.74847   5.79909
 Alpha virt. eigenvalues --    5.84412   5.91804   5.92464   5.97993   6.06358
 Alpha virt. eigenvalues --    6.13883   6.16969   6.20099   6.25122   6.39048
 Alpha virt. eigenvalues --    6.45749   6.51845   6.53683   6.58149   6.67334
 Alpha virt. eigenvalues --    6.86016   7.12610   7.25233   9.48236  11.94979
 Alpha virt. eigenvalues --   12.69709  14.83701  17.60341  18.62157  22.35466
          Condensed to atoms (all electrons):
               1          2          3          4          5          6
     1  O    8.104342  -0.123087   0.365640  -0.060639   0.001929   0.005810
     2  N   -0.123087   6.688548   0.360542  -0.003540   0.517571  -0.031232
     3  C    0.365640   0.360542   4.472679   0.494414  -0.086035  -0.053797
     4  C   -0.060639  -0.003540   0.494414   4.806358  -0.043624   0.548835
     5  C    0.001929   0.517571  -0.086035  -0.043624   4.554253  -0.076168
     6  C    0.005810  -0.031232  -0.053797   0.548835  -0.076168   4.677797
     7  C    0.000061  -0.027156  -0.042512  -0.058147   0.565284   0.501789
     8  H    0.198321   0.091122  -0.058443   0.025935  -0.000449  -0.007664
     9  H    0.006004   0.007755  -0.032273   0.431911  -0.002224  -0.030461
    10  H   -0.000675  -0.033759   0.002881  -0.002128   0.424452   0.006738
    11  H   -0.000484  -0.001358   0.007237  -0.027332   0.006085   0.417441
    12  H    0.000063   0.006602  -0.000479   0.005263  -0.024297  -0.028073
               7          8          9         10         11         12
     1  O    0.000061   0.198321   0.006004  -0.000675  -0.000484   0.000063
     2  N   -0.027156   0.091122   0.007755  -0.033759  -0.001358   0.006602
     3  C   -0.042512  -0.058443  -0.032273   0.002881   0.007237  -0.000479
     4  C   -0.058147   0.025935   0.431911  -0.002128  -0.027332   0.005263
     5  C    0.565284  -0.000449  -0.002224   0.424452   0.006085  -0.024297
     6  C    0.501789  -0.007664  -0.030461   0.006738   0.417441  -0.028073
     7  C    4.863397   0.004872   0.006988  -0.047043  -0.034555   0.424194
     8  H    0.004872   0.515795  -0.000899  -0.003700   0.000265  -0.000205
     9  H    0.006988  -0.000899   0.575019   0.000226  -0.005499  -0.000412
    10  H   -0.047043  -0.003700   0.000226   0.597704  -0.000549  -0.003194
    11  H   -0.034555   0.000265  -0.005499  -0.000549   0.596634  -0.004650
    12  H    0.424194  -0.000205  -0.000412  -0.003194  -0.004650   0.588495
 Mulliken charges:
               1
     1  O   -0.497285
     2  N   -0.452008
     3  C    0.570145
     4  C   -0.117306
     5  C    0.163223
     6  C    0.068985
     7  C   -0.157171
     8  H    0.235049
     9  H    0.043864
    10  H    0.059047
    11  H    0.046765
    12  H    0.036692
 Sum of Mulliken charges =  -0.00000
 Mulliken charges with hydrogens summed into heavy atoms:
               1
     1  O   -0.262235
     2  N   -0.452008
     3  C    0.570145
     4  C   -0.073442
     5  C    0.222270
     6  C    0.115750
     7  C   -0.120479
 APT charges:
               1
     1  O   -0.233380
     2  N   -0.469722
     3  C    0.223854
     4  C   -0.551481
     5  C   -0.337061
     6  C   -0.352096
     7  C   -0.547526
     8  H    0.253437
     9  H    0.446358
    10  H    0.502719
    11  H    0.510785
    12  H    0.554113
 Sum of APT charges =  -0.00000
 APT charges with hydrogens summed into heavy atoms:
               1
     1  O    0.020057
     2  N   -0.469722
     3  C    0.223854
     4  C   -0.105123
     5  C    0.165658
     6  C    0.158690
     7  C    0.006587
 Electronic spatial extent (au):  <R**2>=            624.7018
 Charge=             -0.0000 electrons
 Dipole moment (field-independent basis, Debye):
    X=              0.0572    Y=             -3.1586    Z=              0.0000  Tot=              3.1591
 Quadrupole moment (field-independent basis, Debye-Ang):
   XX=            -35.8253   YY=            -43.2296   ZZ=            -42.9783
   XY=             -0.7063   XZ=              0.0000   YZ=              0.0000
 Traceless Quadrupole moment (field-independent basis, Debye-Ang):
   XX=              4.8524   YY=             -2.5519   ZZ=             -2.3005
   XY=             -0.7063   XZ=              0.0000   YZ=              0.0000
 Octapole moment (field-independent basis, Debye-Ang**2):
  XXX=              3.0168  YYY=            -20.6913  ZZZ=              0.0000  XYY=             -3.9247
  XXY=             -0.1065  XXZ=              0.0000  XZZ=             -1.2683  YZZ=              4.5267
  YYZ=              0.0000  XYZ=             -0.0000
 Hexadecapole moment (field-independent basis, Debye-Ang**3):
 XXXX=           -260.8701 YYYY=           -515.2971 ZZZZ=            -45.8908 XXXY=              8.8619
 XXXZ=             -0.0000 YYYX=             -5.2828 YYYZ=              0.0000 ZZZX=              0.0000
 ZZZY=              0.0000 XXYY=           -112.9715 XXZZ=            -59.6905 YYZZ=            -96.8451
 XXYZ=              0.0000 YYXZ=              0.0000 ZZXY=              1.1982
 N-N= 2.763935514388D+02 E-N=-1.307426944414D+03  KE= 3.221231058611D+02
 Symmetry A'   KE= 3.104684936554D+02
 Symmetry A"   KE= 1.165461220568D+01
  Exact polarizability:   0.000   0.000   0.000   0.000   0.000   0.000
 Approx polarizability: 139.710   8.063 171.305  -0.000  -0.000  58.554
 No NMR shielding tensors so no spin-rotation constants.
 Leave Link  601 at Fri Sep  3 02:14:43 2021, MaxMem=  1342177280 cpu:         1.3
 (Enter /gpfs/share/home/1801110325/software/g09e01/l701.exe)
 Compute integral second derivatives.
 ... and contract with generalized density number  0.
 Leave Link  701 at Fri Sep  3 02:14:44 2021, MaxMem=  1342177280 cpu:         2.0
 (Enter /gpfs/share/home/1801110325/software/g09e01/l702.exe)
 L702 exits ... SP integral derivatives will be done elsewhere.
 Leave Link  702 at Fri Sep  3 02:14:44 2021, MaxMem=  1342177280 cpu:         0.1
 (Enter /gpfs/share/home/1801110325/software/g09e01/l703.exe)
 Compute integral second derivatives, UseDBF=F ICtDFT=           0.
 Integral derivatives from FoFJK, PRISM(SPDF).
 Calling FoFJK, ICntrl=    100147 FMM=F ISym2X=1 I1Cent= 0 IOpClX= 0 NMat=1 NMatS=1 NMatT=0.
 FoFJK:  IHMeth= 1 ICntrl=  100147 DoSepK=F KAlg= 0 I1Cent=   0 FoldK=F
 IRaf=         0 NMat=   1 IRICut=       1 DoRegI=T DoRafI=F ISym2E= 1.
 FoFCou: FMM=F IPFlag=           0 FMFlag=      100000 FMFlg1=         800
         NFxFlg=           0 DoJE=F BraDBF=F KetDBF=F FulRan=T
         wScrn=  0.000000 ICntrl=  100147 IOpCl=  0 I1Cent=           0 NGrid=           0
         NMat0=    1 NMatS0=      1 NMatT0=    0 NMatD0=    1 NMtDS0=    0 NMtDT0=    0
 Petite list used in FoFCou.
 Leave Link  703 at Fri Sep  3 02:16:16 2021, MaxMem=  1342177280 cpu:       550.6
 (Enter /gpfs/share/home/1801110325/software/g09e01/l716.exe)
 Dipole        = 2.25096275D-02-1.24267551D+00 2.74431667D-32
 Polarizability= 0.00000000D+00 0.00000000D+00 0.00000000D+00
                 0.00000000D+00 0.00000000D+00 0.00000000D+00
 ***** Axes restored to original set *****
 -------------------------------------------------------------------
 Center     Atomic                   Forces (Hartrees/Bohr)
 Number     Number              X              Y              Z
 -------------------------------------------------------------------
      1        8          -0.085235380   -0.053195269   -0.000000000
      2        7          -0.000805566    0.019509148   -0.000000000
      3        6           0.090484351    0.016554865    0.000000000
      4        6          -0.008085943   -0.013570760    0.000000000
      5        6          -0.012811867   -0.018576675    0.000000000
      6        6           0.007555186    0.010539334   -0.000000000
      7        6          -0.009801188    0.004880824   -0.000000000
      8        1           0.021211003    0.032756945   -0.000000000
      9        1          -0.001578796    0.000616679   -0.000000000
     10        1           0.000867219    0.000207494    0.000000000
     11        1           0.000045859   -0.000745645    0.000000000
     12        1          -0.001844877    0.001023060   -0.000000000
 -------------------------------------------------------------------
 Cartesian Forces:  Max     0.090484351 RMS     0.024447207
 Force constants in Cartesian coordinates: 
                1             2             3             4             5 
      1  0.654803D-01
      2  0.408818D-02  0.425937D+00
      3  0.000000D+00  0.000000D+00  0.737762D-01
      4 -0.153814D-01 -0.232971D-01  0.000000D+00  0.519641D+00
      5 -0.100656D+00 -0.408773D-01  0.000000D+00  0.146980D+00  0.625818D+00
      6  0.000000D+00  0.000000D+00  0.157772D-01  0.000000D+00  0.000000D+00
      7 -0.852348D-01  0.136073D-01  0.000000D+00 -0.349981D+00 -0.898064D-01
      8 -0.208743D-01 -0.305111D+00  0.000000D+00 -0.123199D+00 -0.209337D+00
      9  0.000000D+00  0.000000D+00 -0.690249D-01  0.000000D+00  0.000000D+00
     10 -0.232148D-02  0.172900D-01  0.000000D+00 -0.557158D-01 -0.275837D-01
     11  0.536293D-01 -0.492669D-01  0.000000D+00  0.857264D-02  0.628896D-01
     12  0.000000D+00  0.000000D+00  0.141842D-01  0.000000D+00  0.000000D+00
     13  0.696901D-02 -0.740150D-03  0.000000D+00 -0.114593D+00 -0.433331D-02
     14  0.221658D-01 -0.157723D-02  0.000000D+00  0.656929D-02 -0.333331D+00
     15  0.000000D+00  0.000000D+00  0.745219D-02  0.000000D+00  0.000000D+00
     16 -0.154858D-01  0.705448D-02  0.000000D+00 -0.147798D-01 -0.423770D-01
     17 -0.949176D-02  0.104633D-01  0.000000D+00 -0.244371D-01 -0.509069D-01
     18  0.000000D+00  0.000000D+00  0.533971D-02  0.000000D+00  0.000000D+00
     19  0.123428D-01 -0.771052D-02  0.000000D+00  0.336189D-01  0.781565D-01
     20 -0.718365D-02 -0.563589D-02  0.000000D+00  0.226109D-01 -0.548012D-01
     21  0.000000D+00  0.000000D+00 -0.212552D-02  0.000000D+00  0.000000D+00
     22  0.294782D-01 -0.101036D-01  0.000000D+00  0.556946D-03  0.343153D-01
     23  0.588188D-01 -0.327903D-01  0.000000D+00  0.120491D-01  0.253859D-01
     24  0.000000D+00  0.000000D+00 -0.422624D-01  0.000000D+00  0.000000D+00
     25  0.268948D-02  0.337174D-04  0.000000D+00 -0.469471D-02  0.420128D-02
     26 -0.108339D-02  0.926618D-03  0.000000D+00  0.570978D-02 -0.941653D-03
     27  0.000000D+00  0.000000D+00 -0.181678D-02  0.000000D+00  0.000000D+00
     28 -0.585521D-03 -0.236513D-05  0.000000D+00  0.487180D-02 -0.372108D-02
     29 -0.781954D-03 -0.140633D-02  0.000000D+00 -0.341744D-01 -0.229608D-01
     30  0.000000D+00  0.000000D+00  0.754245D-03  0.000000D+00  0.000000D+00
     31  0.171500D-04  0.117532D-03  0.000000D+00  0.687154D-03 -0.548509D-03
     32  0.203979D-02 -0.926532D-03  0.000000D+00 -0.271490D-03 -0.330752D-03
     33  0.000000D+00  0.000000D+00 -0.116583D-02  0.000000D+00  0.000000D+00
     34  0.203200D-02 -0.337430D-03  0.000000D+00 -0.423026D-02  0.537289D-02
     35 -0.670824D-03  0.264211D-03  0.000000D+00  0.288755D-02 -0.606973D-03
     36  0.000000D+00  0.000000D+00 -0.888334D-03  0.000000D+00  0.000000D+00
                6             7             8             9            10 
      6  0.820399D-01
      7  0.000000D+00  0.733758D+00
      8  0.000000D+00 -0.715883D-03  0.661009D+00
      9 -0.664210D-01  0.000000D+00  0.000000D+00  0.175147D+00
     10  0.000000D+00 -0.234776D+00  0.678148D-01  0.000000D+00  0.678752D+00
     11  0.000000D+00  0.233476D-01 -0.127204D+00  0.000000D+00  0.722106D-01
     12  0.128043D-01  0.000000D+00  0.000000D+00 -0.797914D-01  0.000000D+00
     13  0.000000D+00  0.206197D-01 -0.353322D-01  0.000000D+00 -0.131058D-01
     14  0.000000D+00 -0.997687D-01 -0.351784D-01  0.000000D+00  0.313552D-01
     15 -0.494387D-01  0.000000D+00  0.000000D+00  0.147791D-02  0.000000D+00
     16  0.000000D+00  0.457361D-01  0.275054D-01  0.000000D+00 -0.133822D+00
     17  0.000000D+00  0.680319D-01 -0.362594D-01  0.000000D+00 -0.313081D-01
     18 -0.561911D-02  0.000000D+00  0.000000D+00  0.130308D-02  0.000000D+00
     19  0.000000D+00 -0.682249D-01  0.494477D-02  0.000000D+00  0.281497D-01
     20  0.000000D+00  0.155356D-01  0.224469D-02  0.000000D+00 -0.353169D-01
     21  0.170331D-01  0.000000D+00  0.000000D+00 -0.887816D-02  0.000000D+00
     22  0.000000D+00 -0.488973D-01  0.967983D-01  0.000000D+00  0.249328D-02
     23  0.000000D+00  0.569574D-01  0.474435D-01  0.000000D+00  0.590645D-02
     24 -0.152463D-01  0.000000D+00  0.000000D+00  0.245092D-01  0.000000D+00
     25  0.000000D+00 -0.155206D-01 -0.180542D-01  0.000000D+00 -0.269715D+00
     26  0.000000D+00  0.135218D-01  0.110761D-01  0.000000D+00 -0.127009D+00
     27  0.504902D-02  0.000000D+00  0.000000D+00  0.131866D-02  0.000000D+00
     28  0.000000D+00  0.299674D-02  0.133723D-02  0.000000D+00  0.375693D-03
     29  0.000000D+00  0.154681D-02 -0.378888D-02  0.000000D+00 -0.224331D-04
     30 -0.158473D-02  0.000000D+00  0.000000D+00  0.914989D-02  0.000000D+00
     31  0.000000D+00  0.175128D-02 -0.128741D-02  0.000000D+00  0.466506D-02
     32  0.000000D+00 -0.222697D-02 -0.517643D-02  0.000000D+00  0.292468D-01
     33 -0.224755D-02  0.000000D+00  0.000000D+00  0.114423D-01  0.000000D+00
     34  0.000000D+00 -0.222655D-02  0.106255D-02  0.000000D+00 -0.497938D-02
     35  0.000000D+00 -0.304057D-04  0.281262D-03  0.000000D+00 -0.258334D-02
     36  0.785394D-02  0.000000D+00  0.000000D+00 -0.232404D-03  0.000000D+00
               11            12            13            14            15 
     11  0.704624D+00
     12  0.000000D+00  0.121952D+00
     13  0.218234D-01  0.000000D+00  0.739501D+00
     14 -0.461420D-01  0.000000D+00  0.340602D-01  0.670039D+00
     15  0.000000D+00 -0.209669D-02  0.000000D+00  0.000000D+00  0.141312D+00
     16  0.218712D-01  0.000000D+00 -0.615199D-01  0.299897D-01  0.000000D+00
     17 -0.360414D+00  0.000000D+00 -0.162154D-01  0.629402D-01  0.000000D+00
     18  0.000000D+00 -0.577594D-01  0.000000D+00  0.000000D+00  0.661185D-02
     19 -0.666368D-01  0.000000D+00 -0.279051D+00  0.601398D-01  0.000000D+00
     20 -0.237418D-01  0.000000D+00  0.121790D+00 -0.181370D+00  0.000000D+00
     21  0.000000D+00  0.713733D-02  0.000000D+00  0.000000D+00 -0.642743D-01
     22 -0.594996D-02  0.000000D+00 -0.129453D-01 -0.846710D-02  0.000000D+00
     23 -0.178120D-01  0.000000D+00 -0.158211D-01 -0.204078D-01  0.000000D+00
     24  0.000000D+00  0.598659D-02  0.000000D+00  0.000000D+00 -0.497206D-02
     25 -0.125951D+00  0.000000D+00  0.221941D-03  0.218728D-02  0.000000D+00
     26 -0.132327D+00  0.000000D+00  0.305065D-03 -0.143720D-02  0.000000D+00
     27  0.000000D+00 -0.328029D-01  0.000000D+00  0.000000D+00 -0.369889D-03
     28  0.844335D-03  0.000000D+00 -0.288046D+00 -0.101024D+00  0.000000D+00
     29 -0.479955D-03  0.000000D+00 -0.971932D-01 -0.100573D+00  0.000000D+00
     30  0.000000D+00 -0.705673D-03  0.000000D+00  0.000000D+00 -0.408869D-01
     31 -0.181043D-02  0.000000D+00 -0.423646D-02 -0.417296D-02  0.000000D+00
     32 -0.108975D-01  0.000000D+00 -0.364640D-02 -0.104674D-02  0.000000D+00
     33  0.000000D+00  0.584427D-02  0.000000D+00  0.000000D+00  0.657760D-02
     34 -0.195117D-02  0.000000D+00  0.618696D-02  0.269654D-01  0.000000D+00
     35  0.770190D-03  0.000000D+00 -0.469693D-02 -0.119159D-01  0.000000D+00
     36  0.000000D+00  0.524745D-02  0.000000D+00  0.000000D+00 -0.139296D-02
               16            17            18            19            20 
     16  0.715947D+00
     17 -0.363529D-01  0.689377D+00
     18  0.000000D+00  0.000000D+00  0.141363D+00
     19 -0.281651D+00 -0.536923D-01  0.000000D+00  0.648240D+00
     20 -0.114626D+00 -0.169204D+00  0.000000D+00  0.658605D-02  0.749072D+00
     21  0.000000D+00  0.000000D+00 -0.588521D-01  0.000000D+00  0.000000D+00
     22  0.241062D-02  0.449692D-02  0.000000D+00 -0.298412D-02  0.187937D-02
     23  0.813261D-02  0.925844D-02  0.000000D+00 -0.102172D-01  0.581139D-02
     24  0.000000D+00  0.000000D+00 -0.581957D-03  0.000000D+00  0.000000D+00
     25  0.520694D-02  0.256347D-02  0.000000D+00  0.204815D-02  0.830119D-03
     26 -0.282749D-01 -0.102068D-01  0.000000D+00  0.179720D-02 -0.545351D-02
     27  0.000000D+00  0.000000D+00  0.203397D-02  0.000000D+00  0.000000D+00
     28 -0.331587D-02  0.424611D-02  0.000000D+00 -0.167522D-01 -0.136861D-01
     29  0.323368D-02 -0.196471D-02  0.000000D+00  0.159155D-01  0.119811D-01
     30  0.000000D+00  0.000000D+00  0.800265D-02  0.000000D+00  0.000000D+00
     31 -0.262259D+00  0.121791D+00  0.000000D+00 -0.174080D-01  0.171363D-01
     32  0.121833D+00 -0.133826D+00  0.000000D+00 -0.140829D-01  0.122551D-01
     33  0.000000D+00  0.000000D+00 -0.426577D-01  0.000000D+00  0.000000D+00
     34  0.353353D-02 -0.296313D-01  0.000000D+00 -0.583286D-01 -0.155559D-01
     35  0.201051D-02 -0.925761D-02  0.000000D+00 -0.152001D-01 -0.341159D+00
     36  0.000000D+00  0.000000D+00  0.816346D-03  0.000000D+00  0.000000D+00
               21            22            23            24            25 
     21  0.116772D+00
     22  0.000000D+00  0.320701D-01
     23  0.000000D+00 -0.113079D+00 -0.180280D-01
     24  0.285510D-02  0.000000D+00  0.000000D+00  0.318147D-01
     25  0.000000D+00 -0.137171D-02 -0.162024D-02  0.000000D+00  0.280285D+00
     26  0.000000D+00 -0.245353D-04  0.918189D-03  0.000000D+00  0.136237D+00
     27  0.905436D-02  0.000000D+00  0.000000D+00 -0.355624D-03  0.000000D+00
     28  0.000000D+00  0.553441D-03  0.785238D-03  0.000000D+00 -0.333875D-04
     29  0.000000D+00 -0.432330D-03 -0.871328D-04  0.000000D+00 -0.158273D-03
     30  0.633666D-02  0.000000D+00  0.000000D+00 -0.154637D-02  0.000000D+00
     31  0.000000D+00 -0.627708D-04 -0.195535D-04  0.000000D+00  0.711133D-03
     32  0.000000D+00 -0.610314D-05 -0.706005D-03  0.000000D+00 -0.540252D-03
     33  0.451916D-02  0.000000D+00  0.000000D+00 -0.971505D-03  0.000000D+00
     34  0.000000D+00 -0.130134D-02 -0.189271D-02  0.000000D+00  0.172193D-03
     35  0.000000D+00  0.572465D-03  0.101368D-02  0.000000D+00  0.270834D-03
     36 -0.295778D-01  0.000000D+00  0.000000D+00  0.770573D-03  0.000000D+00
               26            27            28            29            30 
     26  0.136530D+00
     27  0.000000D+00  0.236484D-01
     28 -0.604576D-04  0.000000D+00  0.300153D+00
     29  0.117781D-03  0.000000D+00  0.111761D+00  0.118041D+00
     30  0.000000D+00 -0.151159D-02  0.000000D+00  0.000000D+00  0.264129D-01
     31  0.370354D-03  0.000000D+00 -0.102454D-02  0.962976D-03  0.000000D+00
     32  0.129271D-02  0.000000D+00 -0.813351D-03  0.533167D-03  0.000000D+00
     33  0.000000D+00 -0.478979D-02  0.000000D+00  0.000000D+00 -0.434353D-03
     34 -0.148864D-02  0.000000D+00  0.807007D-03 -0.657651D-03  0.000000D+00
     35 -0.495334D-03  0.000000D+00  0.333089D-03  0.588151D-03  0.000000D+00
     36  0.000000D+00  0.542175D-03  0.000000D+00  0.000000D+00 -0.398679D-02
               31            32            33            34            35 
     31  0.276014D+00
     32 -0.132328D+00  0.138094D+00
     33  0.000000D+00  0.000000D+00  0.269217D-01
     34  0.114541D-02  0.796141D-03  0.000000D+00  0.571890D-01
     35 -0.210710D-03  0.735610D-03  0.000000D+00  0.173179D-01  0.359781D+00
     36  0.000000D+00  0.000000D+00 -0.303829D-02  0.000000D+00  0.000000D+00
               36 
     36  0.238861D-01
 FormGI is forming the generalized inverse of G from B-inverse, IUseBI=4.
 Leave Link  716 at Fri Sep  3 02:16:16 2021, MaxMem=  1342177280 cpu:         0.1
 (Enter /gpfs/share/home/1801110325/software/g09e01/l103.exe)

 GradGradGradGradGradGradGradGradGradGradGradGradGradGradGradGradGradGrad
 Berny optimization.
 Red2BG is reusing G-inverse.
 Internal  Forces:  Max     0.043355136 RMS     0.012671502
 Search for a saddle point.
 Step number   1 out of a maximum of   68
 All quantities printed in internal units (Hartrees-Bohrs-Radians)
 Second derivative matrix not updated -- analytic derivatives used.
 ITU=  0
 LST/QST climbing along tangent vector
     Eigenvalues ---   -0.06000   0.00105   0.00524   0.01538   0.01717
     Eigenvalues ---    0.02041   0.02265   0.02709   0.03011   0.04345
     Eigenvalues ---    0.07045   0.10128   0.10558   0.12057   0.13027
     Eigenvalues ---    0.14168   0.19671   0.19906   0.23266   0.28589
     Eigenvalues ---    0.33292   0.35137   0.35728   0.36203   0.36362
     Eigenvalues ---    0.40926   0.41381   0.45018   0.49058   0.53671
     Eigenvalues --- 1000.000001000.000001000.000001000.000001000.00000
     Eigenvalues --- 1000.000001000.000001000.000001000.000001000.00000
     Eigenvalues --- 1000.000001000.000001000.000001000.000001000.00000
     Eigenvalues --- 1000.000001000.000001000.000001000.000001000.00000
     Eigenvalues --- 1000.000001000.000001000.000001000.000001000.00000
     Eigenvalues --- 1000.000001000.000001000.00000
 Eigenvectors required to have negative eigenvalues:
                          R2        R5        A4        A3        D22
   1                    0.65541  -0.52715  -0.21786   0.18131   0.17687
                          D8        D21       D10       D9        A1
   1                   -0.16151   0.16128  -0.14511   0.13433  -0.13364
 QST in optimization variable space.
                        Tangent   TS vect  // Eig F  Eigenval
   1         R1        -0.04449  -0.04449  -0.02558  -0.06000
   2         R2         0.65541   0.65541  -0.00055   0.00105
   3         R3         0.02447   0.02447   0.00529   0.00524
   4         R4         0.00873   0.00873  -0.00054   0.01538
   5         R5        -0.52715  -0.52715   0.00071   0.01717
   6         R6         0.02006   0.02006   0.00011   0.02041
   7         R7        -0.00889  -0.00889   0.00049   0.02265
   8         R8        -0.00002  -0.00002   0.00012   0.02709
   9         R9        -0.01126  -0.01126   0.00040   0.03011
  10         R10       -0.00138  -0.00138   0.00040   0.04345
  11         R11        0.01167   0.01167  -0.01700   0.07045
  12         R12        0.00042   0.00042  -0.00647   0.10128
  13         R13       -0.00093  -0.00093   0.00693   0.10558
  14         A1        -0.13364  -0.13364  -0.00100   0.12057
  15         A2         0.03655   0.03655   0.00147   0.13027
  16         A3         0.18131   0.18131  -0.02503   0.14168
  17         A4        -0.21786  -0.21786   0.00315   0.19671
  18         A5         0.00802   0.00802   0.00842   0.19906
  19         A6         0.03831   0.03831  -0.02215   0.23266
  20         A7        -0.04632  -0.04632   0.01961   0.28589
  21         A8         0.01699   0.01699  -0.00552   0.33292
  22         A9        -0.01542  -0.01542  -0.00245   0.35137
  23         A10       -0.00157  -0.00157   0.00020   0.35728
  24         A11       -0.01391  -0.01391  -0.00158   0.36203
  25         A12        0.00254   0.00254   0.00049   0.36362
  26         A13        0.01136   0.01136  -0.00807   0.40926
  27         A14        0.00742   0.00742   0.00062   0.41381
  28         A15       -0.00152  -0.00152  -0.00440   0.45018
  29         A16       -0.00590  -0.00590   0.00478   0.49058
  30         A17       -0.00073  -0.00073   0.00485   0.53671
  31         A18       -0.00062  -0.00062   0.000001000.00000
  32         A19        0.00135   0.00135   0.000001000.00000
  33         D1         0.02025   0.02025  -0.000001000.00000
  34         D2         0.03143   0.03143   0.000001000.00000
  35         D3        -0.01762  -0.01762   0.000001000.00000
  36         D4        -0.02941  -0.02941  -0.000001000.00000
  37         D5        -0.01931  -0.01931   0.000001000.00000
  38         D6        -0.03110  -0.03110  -0.000001000.00000
  39         D7         0.11793   0.11793   0.000001000.00000
  40         D8        -0.16151  -0.16151  -0.000001000.00000
  41         D9         0.13433   0.13433   0.000001000.00000
  42         D10       -0.14511  -0.14511   0.000001000.00000
  43         D11       -0.05015  -0.05015   0.000001000.00000
  44         D12       -0.01171  -0.01171  -0.000001000.00000
  45         D13       -0.03847  -0.03847  -0.000001000.00000
  46         D14       -0.00003  -0.00003  -0.000001000.00000
  47         D15        0.02181   0.02181  -0.000001000.00000
  48         D16        0.04556   0.04556   0.000001000.00000
  49         D17       -0.01760  -0.01760   0.000001000.00000
  50         D18        0.00615   0.00615  -0.000001000.00000
  51         D19       -0.13237  -0.13237  -0.000001000.00000
[...]
    A1        1.30537  -0.00015   0.00000  -0.00029  -0.00029   1.30508
    A2        2.15418   0.00001   0.00000  -0.00015  -0.00015   2.15404
    A3        1.31047  -0.00004   0.00000  -0.00031  -0.00031   1.31016
    A4        2.81853   0.00003   0.00000   0.00046   0.00046   2.81899
    A5        1.83922   0.00001   0.00000  -0.00002  -0.00002   1.83920
    A6        2.34776   0.00001   0.00000  -0.00010  -0.00010   2.34766
    A7        2.09621  -0.00002   0.00000   0.00013   0.00013   2.09633
    A8        2.03409   0.00001   0.00000  -0.00001  -0.00001   2.03408
    A9        2.11124  -0.00001   0.00000  -0.00001  -0.00001   2.11123
   A10        2.13785  -0.00000   0.00000   0.00002   0.00002   2.13787
   A11        2.07938  -0.00001   0.00000   0.00006   0.00006   2.07945
   A12        2.05169  -0.00000   0.00000  -0.00006  -0.00006   2.05163
   A13        2.15211   0.00001   0.00000   0.00000   0.00000   2.15211
   A14        2.13214   0.00001   0.00000  -0.00003  -0.00003   2.13210
   A15        2.07667  -0.00000   0.00000   0.00003   0.00003   2.07670
   A16        2.07438  -0.00001   0.00000   0.00001   0.00001   2.07438
   A17        2.07036  -0.00000   0.00000   0.00001   0.00001   2.07037
   A18        2.09988   0.00000   0.00000  -0.00000  -0.00000   2.09988
   A19        2.11294  -0.00000   0.00000  -0.00000  -0.00000   2.11294
    D1        0.00034  -0.00001   0.00000  -0.00034  -0.00034   0.00000
    D2       -3.14105  -0.00000   0.00000  -0.00055  -0.00054  -3.14159
    D3       -3.14050   0.00000   0.00000  -0.00109  -0.00109   3.14159
    D4        0.00092  -0.00000   0.00000  -0.00092  -0.00092  -0.00000
    D5       -0.00036   0.00001   0.00000   0.00036   0.00036  -0.00000
    D6        3.14106   0.00000   0.00000   0.00053   0.00053   3.14159
    D7       -0.00070   0.00000   0.00000   0.00070   0.00070   0.00000
    D8        3.14137  -0.00000   0.00000   0.00023   0.00023  -3.14159
    D9       -3.13788  -0.00001   0.00000  -0.00371  -0.00371  -3.14159
   D10        0.00419  -0.00001   0.00000  -0.00419  -0.00419   0.00000
   D11        3.14081  -0.00001   0.00000   0.00079   0.00079  -3.14159
   D12       -0.00059  -0.00000   0.00000   0.00059   0.00059   0.00000
   D13       -0.00056  -0.00000   0.00000   0.00056   0.00056   0.00000
   D14        3.14124   0.00000   0.00000   0.00036   0.00036  -3.14159
   D15        0.00004   0.00000   0.00000  -0.00004  -0.00004  -0.00000
   D16       -3.14147   0.00000   0.00000  -0.00012  -0.00012   3.14159
   D17        3.14143  -0.00000   0.00000   0.00016   0.00016   3.14159
   D18       -0.00008  -0.00000   0.00000   0.00008   0.00008  -0.00000
   D19        0.00015  -0.00000   0.00000  -0.00015  -0.00015  -0.00000
   D20       -3.14151  -0.00000   0.00000  -0.00009  -0.00009  -3.14159
   D21        3.14124   0.00000   0.00000   0.00035   0.00035   3.14159
   D22       -0.00042   0.00001   0.00000   0.00042   0.00042   0.00000
   D23        0.00016   0.00000   0.00000  -0.00016  -0.00016   0.00000
   D24       -3.14136  -0.00000   0.00000  -0.00023  -0.00023   3.14159
   D25       -3.14151  -0.00000   0.00000  -0.00008  -0.00008  -3.14159
   D26        0.00015  -0.00000   0.00000  -0.00015  -0.00015  -0.00000
         Item               Value     Threshold  Converged?
 Maximum Force            0.000273     0.000450     YES
 RMS     Force            0.000044     0.000300     YES
 Maximum Displacement     0.001151     0.001800     YES
 RMS     Displacement     0.000304     0.001200     YES
 Predicted change in Energy=-1.481220D-07
 Optimization completed.
    -- Stationary point found.
                           ----------------------------
                           !   Optimized Parameters   !
                           ! (Angstroms and Degrees)  !
 --------------------------                            --------------------------
 ! Name  Definition              Value          Derivative Info.                !
 --------------------------------------------------------------------------------
 ! R1    R(1,3)                  1.2893         -DE/DX =    0.0003              !
 ! R2    R(1,8)                  1.3712         -DE/DX =    0.0001              !
 ! R3    R(2,3)                  1.3615         -DE/DX =    0.0                 !
 ! R4    R(2,5)                  1.336          -DE/DX =    0.0                 !
 ! R5    R(2,8)                  1.2907         -DE/DX =   -0.0001              !
 ! R6    R(3,4)                  1.4058         -DE/DX =    0.0                 !
 ! R7    R(4,6)                  1.3829         -DE/DX =    0.0                 !
 ! R8    R(4,9)                  1.0799         -DE/DX =    0.0                 !
 ! R9    R(5,7)                  1.3827         -DE/DX =    0.0                 !
 ! R10   R(5,10)                 1.0819         -DE/DX =    0.0                 !
 ! R11   R(6,7)                  1.4056         -DE/DX =    0.0                 !
 ! R12   R(6,11)                 1.0837         -DE/DX =    0.0                 !
 ! R13   R(7,12)                 1.0802         -DE/DX =    0.0                 !
 ! A1    A(3,1,8)               74.7923         -DE/DX =   -0.0002              !
 ! A2    A(3,2,5)              123.4257         -DE/DX =    0.0                 !
 ! A3    A(3,2,8)               75.0845         -DE/DX =    0.0                 !
 ! A4    A(5,2,8)              161.4897         -DE/DX =    0.0                 !
 ! A5    A(1,3,2)              105.3797         -DE/DX =    0.0                 !
 ! A6    A(1,3,4)              134.5165         -DE/DX =    0.0                 !
 ! A7    A(2,3,4)              120.1038         -DE/DX =    0.0                 !
 ! A8    A(3,4,6)              116.545          -DE/DX =    0.0                 !
 ! A9    A(3,4,9)              120.9653         -DE/DX =    0.0                 !
 ! A10   A(6,4,9)              122.4896         -DE/DX =    0.0                 !
 ! A11   A(2,5,7)              119.1399         -DE/DX =    0.0                 !
 ! A12   A(2,5,10)             117.5532         -DE/DX =    0.0                 !
 ! A13   A(7,5,10)             123.3069         -DE/DX =    0.0                 !
 ! A14   A(4,6,7)              122.1625         -DE/DX =    0.0                 !
 ! A15   A(4,6,11)             118.9843         -DE/DX =    0.0                 !
 ! A16   A(7,6,11)             118.8531         -DE/DX =    0.0                 !
 ! A17   A(5,7,6)              118.6231         -DE/DX =    0.0                 !
 ! A18   A(5,7,12)             120.3142         -DE/DX =    0.0                 !
 ! A19   A(6,7,12)             121.0627         -DE/DX =    0.0                 !
 ! D1    D(8,1,3,2)              0.0193         -DE/DX =    0.0                 !
 ! D2    D(8,1,3,4)           -179.9688         -DE/DX =    0.0                 !
 ! D3    D(5,2,3,1)            180.0626         -DE/DX =    0.0                 !
 ! D4    D(5,2,3,4)              0.0528         -DE/DX =    0.0                 !
 ! D5    D(8,2,3,1)             -0.0205         -DE/DX =    0.0                 !
 ! D6    D(8,2,3,4)            179.9697         -DE/DX =    0.0                 !
 ! D7    D(3,2,5,7)             -0.0403         -DE/DX =    0.0                 !
 ! D8    D(3,2,5,10)          -180.013          -DE/DX =    0.0                 !
 ! D9    D(8,2,5,7)           -179.7873         -DE/DX =    0.0                 !
 ! D10   D(8,2,5,10)             0.24           -DE/DX =    0.0                 !
 ! D11   D(1,3,4,6)           -180.0451         -DE/DX =    0.0                 !
 ! D12   D(1,3,4,9)             -0.0337         -DE/DX =    0.0                 !
 ! D13   D(2,3,4,6)             -0.0319         -DE/DX =    0.0                 !
 ! D14   D(2,3,4,9)           -180.0205         -DE/DX =    0.0                 !
 ! D15   D(3,4,6,7)              0.0022         -DE/DX =    0.0                 !
 ! D16   D(3,4,6,11)           180.0069         -DE/DX =    0.0                 !
 ! D17   D(9,4,6,7)            179.9907         -DE/DX =    0.0                 !
 ! D18   D(9,4,6,11)            -0.0046         -DE/DX =    0.0                 !
 ! D19   D(2,5,7,6)              0.0087         -DE/DX =    0.0                 !
 ! D20   D(2,5,7,12)          -179.995          -DE/DX =    0.0                 !
 ! D21   D(10,5,7,6)           179.9798         -DE/DX =    0.0                 !
 ! D22   D(10,5,7,12)           -0.0239         -DE/DX =    0.0                 !
 ! D23   D(4,6,7,5)              0.0094         -DE/DX =    0.0                 !
 ! D24   D(4,6,7,12)           180.0131         -DE/DX =    0.0                 !
 ! D25   D(11,6,7,5)          -179.9953         -DE/DX =    0.0                 !
 ! D26   D(11,6,7,12)            0.0084         -DE/DX =    0.0                 !
 --------------------------------------------------------------------------------
 GradGradGradGradGradGradGradGradGradGradGradGradGradGradGradGradGradGrad

 Leave Link  103 at Fri Sep  3 02:31:31 2021, MaxMem=  1342177280 cpu:         0.1
 (Enter /gpfs/share/home/1801110325/software/g09e01/l9999.exe)
 1\1\GINC-A5U15N02\Freq\RTPSSh\Gen\C5H5N1O1\1801110325\03-Sep-2021\0\\#
 P Geom=AllCheck Guess=TCheck SCRF=Check GenChk RTPSSh/ChkBas Freq\\HY_
 TPSSh_PC2_OPT_FREQ\\0,1\O,0.0069277037,2.5934963838,0.0025380309\N,-0.
 892305558,0.6859867244,0.0002482664\C,0.3026468044,1.3385554512,0.0008
 482237\C,1.5043850099,0.6091211703,-0.0001388212\C,-1.0037816312,-0.64
 53055701,-0.0002381489\C,1.3907865987,-0.7690670344,-0.0010185839\C,0.
 1434837111,-1.4170034992,-0.0009852254\H,-1.198520783,1.939884048,0.00
 23855364\H,2.4598689449,1.1124144227,-0.0000111105\H,-2.0013506764,-1.
 0639631603,-0.0004786221\H,2.2923960015,-1.3702824877,-0.0016804239\H,
 0.0754300745,-2.4950151487,-0.0014691216\\Version=EM64L-G09RevE.01\Sta
 te=1-A\HF=-323.6086506\RMSD=9.773e-09\RMSF=7.757e-05\ZeroPoint=0.08811
 04\Thermal=0.0931463\Dipole=-0.0145478,-1.3611422,-0.0009785\DipoleDer
 iv=-0.4816948,-0.0016289,0.0000146,0.1798157,-1.6072163,-0.0013589,0.0
 002384,-0.0013068,-0.3683734,-0.3219738,-0.38402,-0.0005494,0.149559,-
 0.9632128,-0.0007674,-0.0005648,-0.0011279,-0.1994813,0.1760674,-0.397
 2209,-0.0002505,-0.245244,1.6219696,0.001723,-0.0002305,0.0020621,0.19
 62476,-0.0020499,0.4880318,0.0004058,-0.0772538,-0.5784811,-0.0003562,
 -0.0000265,-0.0005787,-0.1663285,0.4796598,0.1323156,0.0000978,-0.4733
 194,0.4187734,0.0002671,0.0000268,0.0003302,0.0228935,0.3662636,0.1304
 535,-0.0000291,0.2014146,0.4659793,0.0003602,-0.0000405,0.0004225,-0.0
 685944,-0.5817908,-0.1543105,-0.0000683,0.0727851,-0.14916,-0.0001,0.0
 001531,-0.0000235,-0.1914843,0.3726643,0.2140006,0.0002379,0.2159756,0
 .7350372,0.0005438,0.0004739,0.0005712,0.2182399,-0.0138241,-0.0393299
 ,0.00002,-0.0432883,0.042903,-0.0000721,-0.0000107,-0.0001575,0.153054
 9,-0.028511,-0.0613077,-0.0000057,-0.0382134,0.0510491,-0.0000342,-0.0
 001542,-0.0000539,0.1249344,-0.0314244,0.0784312,0.0000952,0.0785735,0
 .0320015,-0.0000858,0.0001115,-0.0000583,0.1207159,0.0666137,-0.005415
 ,0.0000316,-0.0208047,-0.0696428,-0.0001195,0.0000234,-0.0000796,0.158
 1757\Polar=75.07432,-0.0432589,89.9069467,-0.0113955,0.0428401,37.4374
 118\PG=C01 [X(C5H5N1O1)]\NImag=1\\0.08221874,-0.01737052,0.59260017,-0
 .00000832,0.00070385,0.05155160,-0.01059076,-0.05125686,-0.00005389,0.
 47267955,-0.14768555,-0.12530693,-0.00016589,0.12014782,0.69906928,-0.
 00014536,-0.00019568,0.03495869,0.00001382,0.00044622,0.08852921,-0.10
 216728,0.06031990,0.00008078,-0.25153219,-0.02265975,-0.00002929,0.695
 66567,0.03162323,-0.41047019,-0.00042441,-0.07178877,-0.18098523,-0.00
 009146,-0.12025438,0.71242418,0.00005006,-0.00043270,-0.06926128,-0.00
 008441,-0.00012130,-0.07584148,-0.00026819,0.00061786,0.18256386,-0.00
 491057,0.01832179,0.00002373,-0.04838627,-0.01984681,0.00000808,-0.261
 57712,0.07913097,0.00012677,0.71272023,0.05738273,-0.02448305,-0.00006
 285,0.01137199,0.06304243,0.00004594,0.04283684,-0.14416887,-0.0000839
 3,0.06066455,0.68590895,0.00006900,-0.00006625,0.01186728,0.00000736,0
 .00005256,0.00621726,0.00011289,-0.00007066,-0.07034201,-0.00013991,0.
 00041770,0.11461876,0.01036217,-0.00273057,-0.00000562,-0.14107220,-0.
 02226213,0.00004770,0.02828960,-0.02438866,-0.00000287,-0.00960025,0.0
 2047214,0.00001309,0.76615574,0.02294411,0.00104656,-0.00002091,-0.013
 63101,-0.34184531,-0.00013179,-0.09234647,-0.02301545,0.00002468,0.026
 31255,-0.04734064,-0.00004006,0.03456844,0.66385022,-0.00002171,-0.000
 01061,0.00681938,0.00004977,-0.00013708,-0.04895953,-0.00006419,-0.000
 03843,-0.00074262,0.00001335,-0.00002796,-0.00054238,-0.00007180,0.000
 27869,0.14226096,-0.01954912,0.00107226,0.00001102,-0.01647303,-0.0420
 5925,-0.00002047,0.04620146,0.02932391,0.00001374,-0.13035032,0.007120
 51,0.00001656,-0.05854798,0.03342648,0.00002948,0.68563994,-0.01756837
 ,0.00730161,0.00001310,-0.01991854,-0.04932631,-0.00002249,0.06922605,
 -0.04102423,-0.00004867,-0.04740029,-0.35928137,-0.00019652,-0.0116891
 3,0.06089606,0.00003303,-0.03969476,0.69365672,-0.00000900,0.00000158,
 0.00552143,-0.00000931,-0.00001941,-0.00583203,0.00004016,-0.00004593,
 0.00019476,-0.00001839,-0.00019333,-0.05396465,0.00001074,0.00003120,0
 .00540258,-0.00020362,0.00035500,0.14322325,0.01939588,-0.00286180,-0.
 00001569,0.03260100,0.07831848,0.00002742,-0.07014043,0.00697296,0.000
 02328,0.02456176,-0.06814019,-0.00004531,-0.28551672,0.06601612,0.0000
 9531,-0.26335643,-0.04082250,0.00005226,0.63385190,-0.00699577,-0.0076
 2574,-0.00000718,0.02843189,-0.06129054,-0.00005534,0.01122154,0.00193
 148,0.00000712,-0.03358126,-0.02035571,-0.00000470,0.12645116,-0.18277
 868,-0.00010022,-0.10247426,-0.16234220,-0.00002383,-0.01173862,0.7498
 3207,-0.00000392,-0.00000175,-0.00258764,0.00000086,-0.00005421,0.0166
 9726,0.00002611,0.00001659,-0.00808370,-0.00002118,-0.00000183,0.00731
 425,0.00012624,-0.00008738,-0.06215941,0.00001023,-0.00003923,-0.06059
 817,-0.00015274,0.00032020,0.11324557,0.02093092,-0.00619732,-0.000029
 93,-0.03188756,0.05262129,0.00008556,-0.07020841,0.08497482,0.00014779
 ,0.00174815,-0.01110049,-0.00001584,-0.00873065,-0.00751150,0.00000339
 ,0.00348351,0.00530545,0.00000388,-0.00363247,0.00103593,0.00000063,0.
 09056726,0.07873308,-0.03116815,-0.00003472,0.02524911,0.01509111,0.00
 002210,0.03498765,0.08057512,0.00004554,0.00860896,-0.02264170,-0.0000
 3596,-0.02057011,-0.01946590,0.00003730,0.01043472,0.01383028,0.000010
 82,-0.01462268,0.00642556,-0.00000739,-0.11993853,-0.04340918,0.000069
 87,-0.00000719,-0.03517678,0.00007539,0.00001189,-0.02851251,0.0000967
 5,0.00004288,0.02071757,0.00000727,-0.00003130,0.00661731,-0.00005346,
 0.00000368,-0.00622462,0.00000965,0.00001018,-0.00063108,-0.00000231,0
 .00001078,0.00466626,-0.00019811,-0.00004423,0.04132105,0.00224781,0.0
 0078847,-0.00000081,-0.00335836,0.00366580,0.00000829,-0.01720060,-0.0
 1671528,-0.00001097,-0.28510784,-0.11673549,-0.00001922,-0.00027184,0.
 00221795,0.00000115,0.00352024,0.00122768,0.00000081,0.00253982,0.0005
 9080,0.00000132,-0.00170648,-0.00130271,-0.00000166,0.29853447,-0.0019
 0933,0.00044065,0.00000334,0.00497155,-0.00114883,-0.00000757,0.015227
 44,0.01252239,0.00000511,-0.11745957,-0.11814804,-0.00003637,0.0004946
 0,-0.00155418,-0.00000093,-0.02912585,-0.00910211,-0.00000111,0.001507
 76,-0.00504906,-0.00000987,0.00075242,0.00072414,0.00000124,0.12668726
 ,0.12023509,-0.00000098,0.00000229,-0.00210411,0.00000979,-0.00000424,
 0.00624398,0.00000622,0.00001661,0.00131627,-0.00001741,-0.00004441,-0
 .03183158,0.00000042,-0.00000579,-0.00038410,-0.00001862,-0.00000124,0
 .00115672,-0.00000085,-0.00000899,0.00877380,0.00000117,0.00000105,-0.
 00032278,0.00002299,0.00004004,0.02309495,-0.00068403,-0.00037216,-0.0
 0000027,0.00277826,-0.00427014,-0.00000442,0.00308089,0.00140099,0.000
 00095,0.00019351,0.00058854,0.00000020,-0.30303821,-0.09622214,-0.0000
 4689,-0.00273522,0.00403651,0.00000365,-0.01446820,-0.01275926,-0.0000
 0758,0.00049546,0.00076441,0.00000136,-0.00004864,-0.00005231,-0.00000
 002,0.31459941,0.00001737,-0.00220363,-0.00000419,-0.03720751,-0.01631
 174,-0.00000492,0.00339634,-0.00157295,-0.00000277,-0.00023556,-0.0006
 4780,-0.00000014,-0.09202495,-0.09603005,-0.00002550,0.00330366,-0.002
 21171,-0.00000683,0.01570940,0.01250701,0.00000143,-0.00033798,-0.0008
 6873,0.00000017,-0.00020505,0.00018344,0.00000098,0.10733493,0.1060504
 0,-0.00000166,0.00000281,0.00033157,-0.00000842,-0.00000396,-0.0003633
 5,-0.00000376,-0.00001355,0.00952048,-0.00000137,0.00000025,-0.0005351
 4,-0.00006191,-0.00003441,-0.04038297,0.00000506,-0.00000788,0.0079250
 1,0.00001993,0.00000543,0.00602723,0.00000106,0.00000823,-0.00248537,-
 0.00000043,0.00000149,-0.00180275,0.00005261,0.00003905,0.02599039,0.0
 0015513,0.00015548,-0.00000038,0.00058044,-0.00120673,-0.00000067,0.00
 159670,-0.00174900,0.00000149,0.00559856,-0.00282073,-0.00000102,-0.00
 466338,-0.00339208,0.00000104,-0.25045643,0.12700050,0.00014536,-0.017
 64215,0.01770528,0.00001794,0.00000121,-0.00002416,-0.00000065,0.00075
 756,0.00035543,-0.00000151,-0.00096756,0.00097850,0.00000067,0.2638854
 5,0.00199600,-0.00019482,-0.00000082,-0.00030808,-0.00014151,0.0000014
 4,-0.00174648,-0.00611389,-0.00001045,0.02767180,-0.01274960,-0.000018
 75,-0.00355096,-0.00091653,-0.00000341,0.12671679,-0.14375373,-0.00010
 271,-0.01339934,0.01181593,0.00000876,-0.00014388,-0.00068781,-0.00000
 056,-0.00041175,0.00134451,0.00000445,-0.00075829,0.00055226,0.0000005
 3,-0.13676476,0.15013118,-0.00000146,0.00000394,-0.00115084,0.00000075
 ,0.00000111,-0.00086395,0.00000003,-0.00001337,0.01049978,0.00001586,-
 0.00001521,0.00546643,0.00000236,-0.00000248,0.00627692,0.00014684,-0.
 00009934,-0.04226878,-0.00000241,-0.00000262,0.00450891,0.00000104,0.0
 0000216,-0.00102796,-0.00000160,0.00000442,-0.00480850,0.00000011,0.00
 000010,-0.00049353,-0.00016059,0.00011937,0.02709355,0.00259109,0.0001
 3133,-0.00000063,-0.00533887,0.00523697,0.00000934,-0.00200830,0.00146
 920,0.00000235,-0.00488985,-0.00164041,0.00000220,0.00663374,0.0276175
 6,0.00001111,0.00262338,-0.02970259,-0.00001654,-0.05819396,-0.0178874
 4,0.00000209,-0.00106093,-0.00231974,-0.00000408,0.00009387,-0.0014493
 9,-0.00000120,0.00079434,-0.00072914,-0.00000177,0.00115446,0.00069896
 ,-0.00000093,0.05760103,-0.00116697,0.00006352,0.00000067,0.00393840,-
 0.00084641,-0.00000645,-0.00020868,-0.00010237,-0.00000049,-0.00218712
 ,0.00086542,-0.00000085,-0.00476983,-0.01284610,-0.00000487,0.00195580
 ,-0.00864300,-0.00000545,-0.01693960,-0.34307012,-0.00014531,0.0005398
 0,0.00159527,0.00000247,0.00019230,-0.00044801,-0.00000076,0.00030892,
 0.00055350,0.00000201,-0.00023772,0.00071401,0.00000192,0.01857470,0.3
 6216429,0.00000348,-0.00000028,-0.00076929,-0.00000170,-0.00000570,0.0
 0772645,0.00000250,0.00000388,-0.00054164,0.00000322,-0.00000306,0.005
 11448,-0.00000490,-0.00001543,-0.00136421,0.00000013,0.00000405,-0.000
 12904,0.00000110,-0.00014065,-0.02780436,-0.00000065,-0.00000490,0.001
 05891,0.00000012,0.00000021,0.00066809,0.00000029,0.00000263,-0.003731
 58,-0.00000167,0.00000214,-0.00323202,-0.00000194,0.00015711,0.0230042
 0\\-0.00000459,-0.00035601,-0.00001228,0.00007805,-0.00004951,-0.00005
 897,-0.00000075,0.00021589,0.00001113,-0.00001003,0.00000464,0.0000070
 3,0.00000088,0.00003084,0.00004214,-0.00000911,-0.00000586,-0.00000223
 ,-0.00001886,0.00001462,-0.00000765,-0.00001770,0.00015743,0.00003351,
 0.00000785,-0.00001499,-0.00000204,-0.00000188,0.00001172,-0.00001418,
 -0.00000802,-0.00001031,-0.00000154,-0.00001585,0.00000152,0.00000509\
 \\@


 IT CANNOT BE MY BEAUTY, FOR I HAVE NONE; AND IT CANNOT BE MY WIT,
 FOR HE HAS NOT ENOUGH TO KNOW THAT I HAVE ANY.
 -- CATHARINE SEDLEY, PUZZLED ABOUT WHY SHE WAS MISTRESS TO JAMES II
 Job cpu time:       0 days  0 hours 32 minutes  2.4 seconds.
 File lengths (MBytes):  RWF=   2160 Int=      0 D2E=      0 Chk=     32 Scr=     32
 Normal termination of Gaussian 09 at Fri Sep  3 02:31:31 2021.
