 Entering Gaussian System, Link 0=g09
 AtFile(1): pc-2.gbs
            -H     0
            S    4   1.00
                  0.754230D+02           0.240650D-02
                  0.113500D+02           0.184870D-01
                  0.259930D+01           0.897420D-01
                  0.735130D+00           0.281110D+00
            S    1   1.00
                  0.231670D+00           0.100000D+01
            S    1   1.00
                  0.741470D-01           0.100000D+01
            P    1   1.00
                  0.160000D+01           0.100000D+01
            P    1   1.00
                  0.450000D+00           0.100000D+01
            D    1   1.00
                  0.125000D+01           0.100000D+01
            ****
            -C     0
            S    7   1.00
                  0.785710D+04           0.568250D-03
                  0.117870D+04           0.439150D-02
                  0.268320D+03           0.225040D-01
                  0.759480D+02           0.866530D-01
                  0.245590D+02           0.244050D+00
                  0.862120D+01           0.441480D+00
                  0.312780D+01           0.353320D+00
            S    7   1.00
                  0.117870D+04          -0.594920D-06
                  0.268320D+03          -0.627480D-04
                  0.759480D+02          -0.757730D-03
                  0.245590D+02          -0.733080D-02
                  0.862120D+01          -0.389320D-01
                  0.312780D+01          -0.889080D-01
                  0.822020D+00           0.216890D+00
            S    1   1.00
                  0.330170D+00           0.100000D+01
            S    1   1.00
                  0.114630D+00           0.100000D+01
            P    4   1.00
                  0.337750D+02           0.602940D-02
                  0.767660D+01           0.432280D-01
                  0.223570D+01           0.163010D+00
                  0.764470D+00           0.365040D+00
            P    1   1.00
                  0.262320D+00           0.100000D+01
            P    1   1.00
                  0.846380D-01           0.100000D+01
            D    1   1.00
                  0.140000D+01           0.100000D+01
            D    1   1.00
                  0.450000D+00           0.100000D+01
            F    1   1.00
                  0.950000D+00           0.100000D+01
            ****
            -N     0
            S    7   1.00
                  0.111010D+05           0.545700D-03
                  0.166530D+04           0.421810D-02
                  0.379080D+03           0.216450D-01
                  0.107300D+03           0.837760D-01
                  0.347470D+02           0.238810D+00
                  0.122490D+02           0.439940D+00
                  0.447430D+01           0.363640D+00
            S    7   1.00
                  0.166530D+04          -0.150060D-05
                  0.379080D+03          -0.587530D-04
                  0.107300D+03          -0.774530D-03
                  0.347470D+02          -0.721610D-02
                  0.122490D+02          -0.393380D-01
                  0.447430D+01          -0.906110D-01
                  0.124040D+01           0.198820D+00
            S    1   1.00
                  0.487430D+00           0.100000D+01
            S    1   1.00
                  0.164840D+00           0.100000D+01
            P    4   1.00
                  0.479340D+02           0.617060D-02
                  0.109990D+02           0.442600D-01
                  0.324720D+01           0.168250D+00
                  0.111140D+01           0.368480D+00
            P    1   1.00
                  0.379880D+00           0.100000D+01
            P    1   1.00
                  0.120680D+00           0.100000D+01
            D    1   1.00
                  0.180000D+01           0.100000D+01
            D    1   1.00
                  0.550000D+00           0.100000D+01
            F    1   1.00
                  0.102000D+01           0.100000D+01
            ****
            -O     0
            S    7   1.00
                  0.147820D+05           0.535190D-03
                  0.221730D+04           0.413750D-02
                  0.504740D+03           0.212450D-01
                  0.142870D+03           0.824530D-01
                  0.463000D+02           0.236710D+00
                  0.163370D+02           0.440390D+00
                  0.598280D+01           0.364650D+00
            S    7   1.00
                  0.221730D+04          -0.192750D-05
                  0.504740D+03          -0.579640D-04
                  0.142870D+03          -0.794940D-03
                  0.463000D+02          -0.731250D-02
                  0.163370D+02          -0.405740D-01
                  0.598280D+01          -0.915940D-01
                  0.167180D+01           0.209400D+00
            S    1   1.00
                  0.646620D+00           0.100000D+01
            S    1   1.00
                  0.216690D+00           0.100000D+01
            P    4   1.00
                  0.604240D+02           0.689490D-02
                  0.139350D+02           0.490050D-01
                  0.415310D+01           0.182550D+00
                  0.141580D+01           0.376330D+00
            P    1   1.00
                  0.475490D+00           0.100000D+01
            P    1   1.00
                  0.145290D+00           0.100000D+01
            D    1   1.00
                  0.220000D+01           0.100000D+01
            D    1   1.00
                  0.650000D+00           0.100000D+01
            F    1   1.00
                  0.110000D+01           0.100000D+01
            ****
 Initial command:
 /public3/home/sc51754/softwares/g09e01/l1.exe "./Gau-42250.inp" -scrdir="./"
 Entering Link 1 = /public3/home/sc51754/softwares/g09e01/l1.exe PID=     42252.
  
 Copyright (c) 1988,1990,1992,1993,1995,1998,2003,2009,2015,
            Gaussian, Inc.  All Rights Reserved.
  
 This is part of the Gaussian(R) 09 program.  It is based on
 the Gaussian(R) 03 system (copyright 2003, Gaussian, Inc.),
 the Gaussian(R) 98 system (copyright 1998, Gaussian, Inc.),
 the Gaussian(R) 94 system (copyright 1995, Gaussian, Inc.),
 the Gaussian 92(TM) system (copyright 1992, Gaussian, Inc.),
 the Gaussian 90(TM) system (copyright 1990, Gaussian, Inc.),
 the Gaussian 88(TM) system (copyright 1988, Gaussian, Inc.),
 the Gaussian 86(TM) system (copyright 1986, Carnegie Mellon
 University), and the Gaussian 82(TM) system (copyright 1983,
 Carnegie Mellon University). Gaussian is a federally registered
 trademark of Gaussian, Inc.
  
 This software contains proprietary and confidential information,
 including trade secrets, belonging to Gaussian, Inc.
  
 This software is provided under written license and may be
 used, copied, transmitted, or stored only in accord with that
 written license.
  
 The following legend is applicable only to US Government
 contracts under FAR:
  
                    RESTRICTED RIGHTS LEGEND
  
 Use, reproduction and disclosure by the US Government is
 subject to restrictions as set forth in subparagraphs (a)
 and (c) of the Commercial Computer Software - Restricted
 Rights clause in FAR 52.227-19.
  
 Gaussian, Inc.
 340 Quinnipiac St., Bldg. 40, Wallingford CT 06492
  
  
 ---------------------------------------------------------------
 Warning -- This program may not be used in any manner that
 competes with the business of Gaussian, Inc. or will provide
 assistance to any competitor of Gaussian, Inc.  The licensee
 of this program is prohibited from giving any competitor of
 Gaussian, Inc. access to this program.  By using this program,
 the user acknowledges that Gaussian, Inc. is engaged in the
 business of creating and licensing software in the field of
 computational chemistry and represents and warrants to the
 licensee that it is not a competitor of Gaussian, Inc. and that
 it will not use this program in any manner prohibited above.
 ---------------------------------------------------------------
  

 Cite this work as:
 Gaussian 09, Revision E.01,
 M. J. Frisch, G. W. Trucks, H. B. Schlegel, G. E. Scuseria, 
 M. A. Robb, J. R. Cheeseman, G. Scalmani, V. Barone, B. Mennucci, 
 G. A. Petersson, H. Nakatsuji, M. Caricato, X. Li, H. P. Hratchian, 
 A. F. Izmaylov, J. Bloino, G. Zheng, J. L. Sonnenberg, M. Hada, 
 M. Ehara, K. Toyota, R. Fukuda, J. Hasegawa, M. Ishida, T. Nakajima, 
 Y. Honda, O. Kitao, H. Nakai, T. Vreven, J. A. Montgomery, Jr., 
 J. E. Peralta, F. Ogliaro, M. Bearpark, J. J. Heyd, E. Brothers, 
 K. N. Kudin, V. N. Staroverov, T. Keith, R. Kobayashi, J. Normand, 
 K. Raghavachari, A. Rendell, J. C. Burant, S. S. Iyengar, J. Tomasi, 
 M. Cossi, N. Rega, J. M. Millam, M. Klene, J. E. Knox, J. B. Cross, 
 V. Bakken, C. Adamo, J. Jaramillo, R. Gomperts, R. E. Stratmann, 
 O. Yazyev, A. J. Austin, R. Cammi, C. Pomelli, J. W. Ochterski, 
 R. L. Martin, K. Morokuma, V. G. Zakrzewski, G. A. Voth, 
 P. Salvador, J. J. Dannenberg, S. Dapprich, A. D. Daniels, 
 O. Farkas, J. B. Foresman, J. V. Ortiz, J. Cioslowski, 
 and D. J. Fox, Gaussian, Inc., Wallingford CT, 2013.
 
 ******************************************
 Gaussian 09:  EM64L-G09RevE.01 30-Nov-2015
                28-Aug-2021 
 ******************************************
 %nprocshared=64
 Will use up to   64 processors via shared memory.
 %mem=128GB
 %chk=TST_H2O_LC-wPBE.chk
 --------------------------------------------------------------------
 #p opt=(calcfc,qst3,maxcycle=200) freq gen geom=connectivity lc-wpbe
 --------------------------------------------------------------------
 1/5=1,6=200,10=4,14=-1,18=20,26=3,27=203,38=1,57=2/1,3;
 2/9=110,12=2,17=6,18=5,40=1/2;
 3/5=7,11=2,16=1,25=1,30=1,71=2,74=-41,140=1/1,2,3;
 4//1;
 5/5=2,38=5/2;
 8/6=4,10=90,11=11/1;
 11/6=1,8=1,9=11,15=111,16=1/1,2,10;
 10/6=1,13=1/2;
 6/7=2,8=2,9=2,10=2,28=1/1;
 7/10=1,18=20,25=1/1,2,3,16;
 1/5=1,6=200,10=4,14=-1,18=20,26=3,27=203/3(2);
 2/9=110/2;
 99//99;
 2/9=110/2;
 3/5=7,6=1,11=2,16=1,25=1,30=1,71=1,74=-41,82=7/1,2,3;
 4/5=5,16=3,69=1/1;
 5/5=2,38=5/2;
 7//1,2,3,16;
 1/5=1,6=200,14=-1,18=20,26=3,27=203/3(-5);
 2/9=110/2;
 6/7=2,8=2,9=2,10=2,19=2,28=1/1;
 99/9=1/99;
 Leave Link    1 at Sat Aug 28 23:52:57 2021, MaxMem= 17179869184 cpu:        11.6
 (Enter /public3/home/sc51754/softwares/g09e01/l101.exe)
 ---------------------------
 HY_H2O_LC-wPBE_PC2_OPT_FREQ
 ---------------------------
 Symbolic Z-matrix:
 Charge =  0 Multiplicity = 1
 O                     1.21586   1.43153  -0.00256 
 N                     0.30391  -0.66346  -0.00511 
 C                     0.14053   0.64776  -0.00007 
 C                    -1.11906   1.25046   0.0084 
 C                    -0.7835   -1.43624  -0.00562 
 C                    -2.22099   0.43997   0.00929 
 C                    -2.0613   -0.94227   0.00164 
 H                     2.02483   0.87677  -0.01934 
 H                    -1.18835   2.32877   0.01216 
 H                    -0.60193  -2.50545  -0.01301 
 H                    -3.21265   0.87566   0.01475 
 H                    -2.91024  -1.61099   0.00047 
 O                     3.06879  -0.58153  -0.08318 
 H                     3.56476  -0.88086   0.67949 
 H                     2.18486  -0.9978   -0.03467 
 
 Add virtual bond connecting atoms O13        and H8         Dist= 3.39D+00.
 Add virtual bond connecting atoms H15        and N2         Dist= 3.61D+00.
 Add virtual bond connecting atoms H15        and H8         Dist= 3.56D+00.
 Add atom     13 valence  3 ND=      2 dihedral       8     13     14     15
 ---------------------------
 PY_H2O_LC-wPBE_PC2_OPT_FREQ
 ---------------------------
 Symbolic Z-matrix:
 Charge =  0 Multiplicity = 1
 O                     1.25364   1.38092   0.00702 
 N                     0.25414  -0.651     0.01313 
 C                     0.21209   0.72635   0.00681 
 C                    -1.11624   1.281    -0.00036 
 C                    -0.83772  -1.45093   0.00756 
 C                    -2.20272   0.48229  -0.00482 
 C                    -2.07965  -0.93139  -0.00147 
 H                     2.67502   0.27523  -0.04765 
 H                    -1.1896    2.35907  -0.00406 
 H                    -0.64018  -2.51436   0.01001 
 H                    -3.19125   0.92618  -0.01169 
 H                    -2.94543  -1.57567  -0.00656 
 O                     3.0759   -0.61784  -0.0832 
 H                     3.8286   -0.61296   0.50731 
 H                     1.19297  -1.04906   0.02392 
 
 Add virtual bond connecting atoms H8         and O1         Dist= 3.40D+00.
 Add virtual bond connecting atoms O13        and H15        Dist= 3.66D+00.
 ---------------
 TST_H2O_LC-wPBE
 ---------------
 Symbolic Z-matrix:
 Charge =  0 Multiplicity = 1
 O                     1.27867   1.41458  -0.00511 
 N                     0.36673  -0.68042  -0.00766 
 C                     0.20334   0.6308   -0.00262 
 C                    -1.05625   1.2335    0.00585 
 C                    -0.72069  -1.4532   -0.00817 
 C                    -2.15817   0.42301   0.00673 
 C                    -1.99849  -0.95922  -0.00091 
 H                     2.23148   0.61215  -0.0331 
 H                    -1.12554   2.31182   0.00961 
 H                    -0.53912  -2.52241  -0.01556 
 H                    -3.14984   0.8587    0.0122 
 H                    -2.84743  -1.62795  -0.00208 
 O                     2.62706  -0.41367  -0.06786 
 H                     3.12303  -0.71301   0.69481 
 H                     1.63312  -0.88175  -0.01331 
 
 NAtoms=     15 NQM=       15 NQMF=       0 NMMI=      0 NMMIF=      0
                NMic=       0 NMicF=      0.
                    Isotopes and Nuclear Properties:
 (Nuclear quadrupole moments (NQMom) in fm**2, nuclear magnetic moments (NMagM)
  in nuclear magnetons)

  Atom         1           2           3           4           5           6           7           8           9          10
 IAtWgt=          16          14          12          12          12          12          12           1           1           1
 AtmWgt=  15.9949146  14.0030740  12.0000000  12.0000000  12.0000000  12.0000000  12.0000000   1.0078250   1.0078250   1.0078250
 NucSpn=           0           2           0           0           0           0           0           1           1           1
 AtZEff=   0.0000000   0.0000000   0.0000000   0.0000000   0.0000000   0.0000000   0.0000000   0.0000000   0.0000000   0.0000000
 NQMom=    0.0000000   2.0440000   0.0000000   0.0000000   0.0000000   0.0000000   0.0000000   0.0000000   0.0000000   0.0000000
 NMagM=    0.0000000   0.4037610   0.0000000   0.0000000   0.0000000   0.0000000   0.0000000   2.7928460   2.7928460   2.7928460
 AtZNuc=   8.0000000   7.0000000   6.0000000   6.0000000   6.0000000   6.0000000   6.0000000   1.0000000   1.0000000   1.0000000

  Atom        11          12          13          14          15
 IAtWgt=           1           1          16           1           1
 AtmWgt=   1.0078250   1.0078250  15.9949146   1.0078250   1.0078250
 NucSpn=           1           1           0           1           1
 AtZEff=   0.0000000   0.0000000   0.0000000   0.0000000   0.0000000
 NQMom=    0.0000000   0.0000000   0.0000000   0.0000000   0.0000000
 NMagM=    2.7928460   2.7928460   0.0000000   2.7928460   2.7928460
 AtZNuc=   1.0000000   1.0000000   8.0000000   1.0000000   1.0000000
 Leave Link  101 at Sat Aug 28 23:52:58 2021, MaxMem= 17179869184 cpu:        14.8
 (Enter /public3/home/sc51754/softwares/g09e01/l103.exe)

 GradGradGradGradGradGradGradGradGradGradGradGradGradGradGradGradGradGrad
 Berny optimization.
 Initialization pass.
                           ----------------------------
                           !    Initial Parameters    !
                           ! (Angstroms and Degrees)  !
 --------------------------                            --------------------------
 ! Name  Definition        TS        Reactant  Product Derivative Info.         !
 --------------------------------------------------------------------------------
 ! R1    R(1,3)             1.3307    1.3307    1.2302 calculate D2E/DX2 analyti!
 ! R2    R(1,8)             1.246     0.9811    1.8016 calculate D2E/DX2 analyti!
 ! R3    R(2,3)             1.3214    1.3214    1.378  calculate D2E/DX2 analyti!
 ! R4    R(2,5)             1.334     1.334     1.3535 calculate D2E/DX2 analyti!
 ! R5    R(2,15)            1.2823    1.9107    1.0198 calculate D2E/DX2 analyti!
 ! R6    R(3,4)             1.3964    1.3964    1.4395 calculate D2E/DX2 analyti!
 ! R7    R(4,6)             1.3679    1.3679    1.3485 calculate D2E/DX2 analyti!
 ! R8    R(4,9)             1.0805    1.0805    1.0806 calculate D2E/DX2 analyti!
 ! R9    R(5,7)             1.37      1.37      1.3463 calculate D2E/DX2 analyti!
 ! R10   R(5,10)            1.0845    1.0845    1.0816 calculate D2E/DX2 analyti!
 ! R11   R(6,7)             1.3914    1.3914    1.419  calculate D2E/DX2 analyti!
 ! R12   R(6,11)            1.0832    1.0832    1.0836 calculate D2E/DX2 analyti!
 ! R13   R(7,12)            1.0807    1.0807    1.0792 calculate D2E/DX2 analyti!
 ! R14   R(8,13)            1.1       1.7946    0.9796 calculate D2E/DX2 analyti!
 ! R15   R(8,15)            1.6094    1.8815    1.9888 calculate D2E/DX2 analyti!
 ! R16   R(13,14)           0.9577    0.9577    0.9567 calculate D2E/DX2 analyti!
 ! R17   R(13,15)           1.1       0.9783    1.9347 calculate D2E/DX2 analyti!
 ! A1    A(3,1,8)         103.8088  109.4709  109.9633 calculate D2E/DX2 analyti!
 ! A2    A(3,2,5)         118.297   118.297   124.4773 calculate D2E/DX2 analyti!
 ! A3    A(3,2,15)        106.1367  107.183   114.7269 calculate D2E/DX2 analyti!
 ! A4    A(5,2,15)        135.5662  134.514   120.7957 calculate D2E/DX2 analyti!
 ! A5    A(1,3,2)         118.9838  118.9838  120.3987 calculate D2E/DX2 analyti!
 ! A6    A(1,3,4)         118.3425  118.3425  125.1885 calculate D2E/DX2 analyti!
 ! A7    A(2,3,4)         122.6738  122.6738  114.4128 calculate D2E/DX2 analyti!
 ! A8    A(3,4,6)         118.0937  118.0937  121.0159 calculate D2E/DX2 analyti!
 ! A9    A(3,4,9)         119.248   119.248   116.557  calculate D2E/DX2 analyti!
 ! A10   A(6,4,9)         122.6582  122.6582  122.427  calculate D2E/DX2 analyti!
 ! A11   A(2,5,7)         123.4641  123.4641  121.0715 calculate D2E/DX2 analyti!
 ! A12   A(2,5,10)        115.7615  115.7615  115.7035 calculate D2E/DX2 analyti!
 ! A13   A(7,5,10)        120.7744  120.7744  123.2249 calculate D2E/DX2 analyti!
 ! A14   A(4,6,7)         119.7446  119.7446  121.345  calculate D2E/DX2 analyti!
 ! A15   A(4,6,11)        119.9457  119.9457  119.4971 calculate D2E/DX2 analyti!
 ! A16   A(7,6,11)        120.3096  120.3096  119.1579 calculate D2E/DX2 analyti!
 ! A17   A(5,7,6)         117.7266  117.7266  117.677  calculate D2E/DX2 analyti!
 ! A18   A(5,7,12)        120.6355  120.6355  120.6442 calculate D2E/DX2 analyti!
 ! A19   A(6,7,12)        121.6379  121.6379  121.6788 calculate D2E/DX2 analyti!
 ! A20   A(1,8,13)        151.197   160.0182  152.0675 calculate D2E/DX2 analyti!
 ! A21   A(1,8,15)        108.2523  129.3221   79.6095 calculate D2E/DX2 analyti!
 ! A22   A(8,13,14)       116.9069  121.7965  107.1533 calculate D2E/DX2 analyti!
 ! A23   A(8,13,15)        94.0324   79.5363   78.6324 calculate D2E/DX2 analyti!
 ! A24   A(14,13,15)      107.1843  107.1843  137.1124 calculate D2E/DX2 analyti!
 ! A25   A(2,15,8)        102.7966   75.0365  115.1975 calculate D2E/DX2 analyti!
 ! A26   A(2,15,13)       145.6672  144.6704  143.9407 calculate D2E/DX2 analyti!
 ! D1    D(8,1,3,2)         0.9899    0.6925    2.1639 calculate D2E/DX2 analyti!
 ! D2    D(8,1,3,4)      -179.0378 -179.3352 -177.8037 calculate D2E/DX2 analyti!
 ! D3    D(3,1,8,13)        1.2105    3.0374    0.5183 calculate D2E/DX2 analyti!
 ! D4    D(3,1,8,15)       -1.3727   -0.4325   -2.4208 calculate D2E/DX2 analyti!
 ! D5    D(5,2,3,1)      -179.8495 -179.8495 -179.6989 calculate D2E/DX2 analyti!
 ! D6    D(5,2,3,4)         0.1794    0.1794    0.272  calculate D2E/DX2 analyti!
 ! D7    D(15,2,3,1)        0.0442   -0.6165    0.3813 calculate D2E/DX2 analyti!
 ! D8    D(15,2,3,4)     -179.9269  179.4124 -179.6479 calculate D2E/DX2 analyti!
 ! D9    D(3,2,5,7)        -0.1413   -0.1413   -0.1742 calculate D2E/DX2 analyti!
 ! D10   D(3,2,5,10)      179.8133  179.8133  179.7772 calculate D2E/DX2 analyti!
 ! D11   D(15,2,5,7)     -179.9954 -179.1136  179.741  calculate D2E/DX2 analyti!
 ! D12   D(15,2,5,10)      -0.0409    0.8409   -0.3075 calculate D2E/DX2 analyti!
 ! D13   D(3,2,15,8)       -0.8198    0.2915   -2.5551 calculate D2E/DX2 analyti!
 ! D14   D(3,2,15,13)      -4.8275   -3.62     -6.2252 calculate D2E/DX2 analyti!
 ! D15   D(5,2,15,8)      179.0465  179.3444  177.5218 calculate D2E/DX2 analyti!
 ! D16   D(5,2,15,13)     175.0388  175.4329  173.8517 calculate D2E/DX2 analyti!
 ! D17   D(1,3,4,6)       179.922   179.922   179.7612 calculate D2E/DX2 analyti!
 ! D18   D(1,3,4,9)         0.0317    0.0317   -0.113  calculate D2E/DX2 analyti!
 ! D19   D(2,3,4,6)        -0.1067   -0.1067   -0.2081 calculate D2E/DX2 analyti!
 ! D20   D(2,3,4,9)      -179.9971 -179.9971  179.9177 calculate D2E/DX2 analyti!
 ! D21   D(3,4,6,7)        -0.0094   -0.0094    0.0546 calculate D2E/DX2 analyti!
 ! D22   D(3,4,6,11)     -179.9381 -179.9381 -179.9092 calculate D2E/DX2 analyti!
 ! D23   D(9,4,6,7)       179.8769  179.8769  179.9212 calculate D2E/DX2 analyti!
 ! D24   D(9,4,6,11)       -0.0517   -0.0517   -0.0426 calculate D2E/DX2 analyti!
 ! D25   D(2,5,7,6)         0.0303    0.0303   -0.0046 calculate D2E/DX2 analyti!
 ! D26   D(2,5,7,12)      179.9744  179.9744  179.9575 calculate D2E/DX2 analyti!
 ! D27   D(10,5,7,6)     -179.922  -179.922  -179.9523 calculate D2E/DX2 analyti!
 ! D28   D(10,5,7,12)       0.022     0.022     0.0098 calculate D2E/DX2 analyti!
 ! D29   D(4,6,7,5)         0.0451    0.0451    0.0584 calculate D2E/DX2 analyti!
 ! D30   D(4,6,7,12)     -179.8984 -179.8984 -179.9033 calculate D2E/DX2 analyti!
 ! D31   D(11,6,7,5)      179.9735  179.9735 -179.9777 calculate D2E/DX2 analyti!
 ! D32   D(11,6,7,12)       0.03      0.03      0.0606 calculate D2E/DX2 analyti!
 ! D33   D(1,8,13,14)    -115.1862 -109.0816 -139.0931 calculate D2E/DX2 analyti!
 ! D34   D(1,8,13,15)      -3.5995   -5.2541   -3.0314 calculate D2E/DX2 analyti!
 ! D35   D(1,8,15,2)        1.4892    0.0921    3.0322 calculate D2E/DX2 analyti!
 ! D36   D(8,13,14,15)    103.8559   88.1692   91.6733 calculate D2E/DX2 analyti!
 ! D37   D(8,13,15,2)       5.7371    4.029     6.8892 calculate D2E/DX2 analyti!
 ! D38   D(14,13,15,2)    125.5167  124.2765  109.9266 calculate D2E/DX2 analyti!
 --------------------------------------------------------------------------------
 Trust Radius=3.00D-01 FncErr=1.00D-07 GrdErr=1.00D-06
 Number of steps in this run=    100 maximum allowed number of steps=    100.
 Search for a saddle point of order  1.
 GradGradGradGradGradGradGradGradGradGradGradGradGradGradGradGradGradGrad

 Leave Link  103 at Sat Aug 28 23:52:58 2021, MaxMem= 17179869184 cpu:         0.5
 (Enter /public3/home/sc51754/softwares/g09e01/l202.exe)
                          Input orientation:                          
 ---------------------------------------------------------------------
 Center     Atomic      Atomic             Coordinates (Angstroms)
 Number     Number       Type             X           Y           Z
 ---------------------------------------------------------------------
      1          8           0        1.278673    1.414576   -0.005109
      2          7           0        0.366726   -0.680420   -0.007663
      3          6           0        0.203344    0.630803   -0.002619
      4          6           0       -1.056249    1.233503    0.005852
      5          6           0       -0.720686   -1.453196   -0.008166
      6          6           0       -2.158174    0.423010    0.006735
      7          6           0       -1.998488   -0.959223   -0.000910
      8          1           0        2.231483    0.612150   -0.033102
      9          1           0       -1.125542    2.311816    0.009614
     10          1           0       -0.539118   -2.522409   -0.015563
     11          1           0       -3.149837    0.858705    0.012200
     12          1           0       -2.847431   -1.627949   -0.002084
     13          8           0        2.627064   -0.413671   -0.067856
     14          1           0        3.123031   -0.713006    0.694808
     15          1           0        1.633121   -0.881754   -0.013313
 ---------------------------------------------------------------------
                    Distance matrix (angstroms):
                    1          2          3          4          5
     1  O    0.000000
     2  N    2.284877   0.000000
     3  C    1.330654   1.321372   0.000000
     4  C    2.341958   2.384983   1.396386   0.000000
     5  C    3.495935   1.334034   2.279674   2.707610   0.000000
     6  C    3.577046   2.755519   2.370661   1.367896   2.363629
     7  C    4.046569   2.381599   2.715925   2.386610   1.369978
     8  H    1.246001   2.269075   2.028454   3.346159   3.602996
     9  H    2.566224   3.343746   2.142870   1.080544   3.786758
    10  H    4.336395   2.052691   3.239470   3.791406   1.084545
    11  H    4.463294   3.838687   3.360950   2.126881   3.353517
    12  H    5.126568   3.350917   3.795944   3.375841   2.133921
    13  O    2.272571   2.276819   2.640000   4.035518   3.505939
    14  H    2.901404   2.844599   3.288890   4.661538   3.976961
    15  H    2.323538   1.282311   2.081394   3.421606   2.422185
                    6          7          8          9         10
     6  C    0.000000
     7  C    1.391447   0.000000
     8  H    4.393910   4.512527   0.000000
     9  H    2.152655   3.385534   3.763018   0.000000
    10  H    3.361150   2.138580   4.183539   4.869729   0.000000
    11  H    1.083169   2.151892   5.387156   2.491848   4.271833
    12  H    2.163697   1.080694   5.551069   4.299626   2.475591
    13  O    4.858405   4.658094   1.100000   4.638570   3.804500
    14  H    5.445650   5.174418   1.755206   5.260172   4.146071
    15  H    4.009579   3.632456   1.609402   4.220146   2.722201
                   11         12         13         14         15
    11  H    0.000000
    12  H    2.505015   0.000000
    13  O    5.915905   5.607931   0.000000
    14  H    6.502700   6.080230   0.957727   0.000000
    15  H    5.089846   4.542277   1.100000   1.658235   0.000000
 Stoichiometry    C5H7NO2
 Framework group  C1[X(C5H7NO2)]
 Deg. of freedom    39
 Full point group                 C1      NOp   1
 Largest Abelian subgroup         C1      NOp   1
 Largest concise Abelian subgroup C1      NOp   1
                         Standard orientation:                         
 ---------------------------------------------------------------------
 Center     Atomic      Atomic             Coordinates (Angstroms)
 Number     Number       Type             X           Y           Z
 ---------------------------------------------------------------------
      1          8           0        1.402711    1.302631   -0.006626
      2          7           0        0.333765   -0.716775   -0.010328
      3          6           0        0.270793    0.603072   -0.002489
      4          6           0       -0.939182    1.299982    0.010618
      5          6           0       -0.809372   -1.404442   -0.009130
      6          6           0       -2.099660    0.575811    0.013175
      7          6           0       -2.045791   -0.814553    0.002619
      8          1           0        2.291524    0.429992   -0.038741
      9          1           0       -0.926091    2.380430    0.016494
     10          1           0       -0.709831   -2.484365   -0.018943
     11          1           0       -3.055219    1.085791    0.022221
     12          1           0       -2.943225   -1.416643    0.002657
     13          8           0        2.607688   -0.622918   -0.076439
     14          1           0        3.081448   -0.960692    0.684285
     15          1           0        1.581115   -1.014010   -0.019918
 ---------------------------------------------------------------------
 Rotational constants (GHZ):      4.2625465      1.6747787      1.2055577
 Leave Link  202 at Sat Aug 28 23:52:58 2021, MaxMem= 17179869184 cpu:         4.2
 (Enter /public3/home/sc51754/softwares/g09e01/l301.exe)
 General basis read from cards:  (5D, 7F)
 Centers:       8      9     10     11     12     14     15
 S 4 1.00
     Exponent=  7.5423000000D+01 Coefficients=  2.4065000000D-03
     Exponent=  1.1350000000D+01 Coefficients=  1.8487000000D-02
     Exponent=  2.5993000000D+00 Coefficients=  8.9742000000D-02
     Exponent=  7.3513000000D-01 Coefficients=  2.8111000000D-01
 S 1 1.00
     Exponent=  2.3167000000D-01 Coefficients=  1.0000000000D+00
 S 1 1.00
     Exponent=  7.4147000000D-02 Coefficients=  1.0000000000D+00
 P 1 1.00
     Exponent=  1.6000000000D+00 Coefficients=  1.0000000000D+00
 P 1 1.00
     Exponent=  4.5000000000D-01 Coefficients=  1.0000000000D+00
 D 1 1.00
     Exponent=  1.2500000000D+00 Coefficients=  1.0000000000D+00
 ****
 Centers:       3      4      5      6      7
 S 7 1.00
     Exponent=  7.8571000000D+03 Coefficients=  5.6825000000D-04
     Exponent=  1.1787000000D+03 Coefficients=  4.3915000000D-03
     Exponent=  2.6832000000D+02 Coefficients=  2.2504000000D-02
     Exponent=  7.5948000000D+01 Coefficients=  8.6653000000D-02
     Exponent=  2.4559000000D+01 Coefficients=  2.4405000000D-01
     Exponent=  8.6212000000D+00 Coefficients=  4.4148000000D-01
     Exponent=  3.1278000000D+00 Coefficients=  3.5332000000D-01
 S 7 1.00
     Exponent=  1.1787000000D+03 Coefficients= -5.9492000000D-07
     Exponent=  2.6832000000D+02 Coefficients= -6.2748000000D-05
     Exponent=  7.5948000000D+01 Coefficients= -7.5773000000D-04
     Exponent=  2.4559000000D+01 Coefficients= -7.3308000000D-03
     Exponent=  8.6212000000D+00 Coefficients= -3.8932000000D-02
     Exponent=  3.1278000000D+00 Coefficients= -8.8908000000D-02
     Exponent=  8.2202000000D-01 Coefficients=  2.1689000000D-01
 S 1 1.00
     Exponent=  3.3017000000D-01 Coefficients=  1.0000000000D+00
 S 1 1.00
     Exponent=  1.1463000000D-01 Coefficients=  1.0000000000D+00
 P 4 1.00
     Exponent=  3.3775000000D+01 Coefficients=  6.0294000000D-03
     Exponent=  7.6766000000D+00 Coefficients=  4.3228000000D-02
     Exponent=  2.2357000000D+00 Coefficients=  1.6301000000D-01
     Exponent=  7.6447000000D-01 Coefficients=  3.6504000000D-01
 P 1 1.00
     Exponent=  2.6232000000D-01 Coefficients=  1.0000000000D+00
 P 1 1.00
     Exponent=  8.4638000000D-02 Coefficients=  1.0000000000D+00
 D 1 1.00
     Exponent=  1.4000000000D+00 Coefficients=  1.0000000000D+00
 D 1 1.00
     Exponent=  4.5000000000D-01 Coefficients=  1.0000000000D+00
 F 1 1.00
     Exponent=  9.5000000000D-01 Coefficients=  1.0000000000D+00
 ****
 Centers:       2
 S 7 1.00
     Exponent=  1.1101000000D+04 Coefficients=  5.4570000000D-04
     Exponent=  1.6653000000D+03 Coefficients=  4.2181000000D-03
     Exponent=  3.7908000000D+02 Coefficients=  2.1645000000D-02
     Exponent=  1.0730000000D+02 Coefficients=  8.3776000000D-02
     Exponent=  3.4747000000D+01 Coefficients=  2.3881000000D-01
     Exponent=  1.2249000000D+01 Coefficients=  4.3994000000D-01
     Exponent=  4.4743000000D+00 Coefficients=  3.6364000000D-01
 S 7 1.00
     Exponent=  1.6653000000D+03 Coefficients= -1.5006000000D-06
     Exponent=  3.7908000000D+02 Coefficients= -5.8753000000D-05
     Exponent=  1.0730000000D+02 Coefficients= -7.7453000000D-04
     Exponent=  3.4747000000D+01 Coefficients= -7.2161000000D-03
     Exponent=  1.2249000000D+01 Coefficients= -3.9338000000D-02
     Exponent=  4.4743000000D+00 Coefficients= -9.0611000000D-02
     Exponent=  1.2404000000D+00 Coefficients=  1.9882000000D-01
 S 1 1.00
     Exponent=  4.8743000000D-01 Coefficients=  1.0000000000D+00
 S 1 1.00
     Exponent=  1.6484000000D-01 Coefficients=  1.0000000000D+00
 P 4 1.00
     Exponent=  4.7934000000D+01 Coefficients=  6.1706000000D-03
     Exponent=  1.0999000000D+01 Coefficients=  4.4260000000D-02
     Exponent=  3.2472000000D+00 Coefficients=  1.6825000000D-01
     Exponent=  1.1114000000D+00 Coefficients=  3.6848000000D-01
 P 1 1.00
     Exponent=  3.7988000000D-01 Coefficients=  1.0000000000D+00
 P 1 1.00
     Exponent=  1.2068000000D-01 Coefficients=  1.0000000000D+00
 D 1 1.00
     Exponent=  1.8000000000D+00 Coefficients=  1.0000000000D+00
 D 1 1.00
     Exponent=  5.5000000000D-01 Coefficients=  1.0000000000D+00
 F 1 1.00
     Exponent=  1.0200000000D+00 Coefficients=  1.0000000000D+00
 ****
 Centers:       1     13
 S 7 1.00
     Exponent=  1.4782000000D+04 Coefficients=  5.3519000000D-04
     Exponent=  2.2173000000D+03 Coefficients=  4.1375000000D-03
     Exponent=  5.0474000000D+02 Coefficients=  2.1245000000D-02
     Exponent=  1.4287000000D+02 Coefficients=  8.2453000000D-02
     Exponent=  4.6300000000D+01 Coefficients=  2.3671000000D-01
     Exponent=  1.6337000000D+01 Coefficients=  4.4039000000D-01
     Exponent=  5.9828000000D+00 Coefficients=  3.6465000000D-01
 S 7 1.00
     Exponent=  2.2173000000D+03 Coefficients= -1.9275000000D-06
     Exponent=  5.0474000000D+02 Coefficients= -5.7964000000D-05
     Exponent=  1.4287000000D+02 Coefficients= -7.9494000000D-04
     Exponent=  4.6300000000D+01 Coefficients= -7.3125000000D-03
     Exponent=  1.6337000000D+01 Coefficients= -4.0574000000D-02
     Exponent=  5.9828000000D+00 Coefficients= -9.1594000000D-02
     Exponent=  1.6718000000D+00 Coefficients=  2.0940000000D-01
 S 1 1.00
     Exponent=  6.4662000000D-01 Coefficients=  1.0000000000D+00
 S 1 1.00
     Exponent=  2.1669000000D-01 Coefficients=  1.0000000000D+00
 P 4 1.00
     Exponent=  6.0424000000D+01 Coefficients=  6.8949000000D-03
     Exponent=  1.3935000000D+01 Coefficients=  4.9005000000D-02
     Exponent=  4.1531000000D+00 Coefficients=  1.8255000000D-01
     Exponent=  1.4158000000D+00 Coefficients=  3.7633000000D-01
 P 1 1.00
     Exponent=  4.7549000000D-01 Coefficients=  1.0000000000D+00
 P 1 1.00
     Exponent=  1.4529000000D-01 Coefficients=  1.0000000000D+00
 D 1 1.00
     Exponent=  2.2000000000D+00 Coefficients=  1.0000000000D+00
 D 1 1.00
     Exponent=  6.5000000000D-01 Coefficients=  1.0000000000D+00
 F 1 1.00
     Exponent=  1.1000000000D+00 Coefficients=  1.0000000000D+00
 ****
 Ernie: Thresh=  0.10000D-02 Tol=  0.10000D-05 Strict=F.
 Ernie:  8 primitive shells out of 263 were deleted.
 There are   385 symmetry adapted cartesian basis functions of A   symmetry.
 There are   338 symmetry adapted basis functions of A   symmetry.
   338 basis functions,   566 primitive gaussians,   385 cartesian basis functions
    30 alpha electrons       30 beta electrons
       nuclear repulsion energy       372.1944406840 Hartrees.
 IExCor=32609 DFT=T Ex+Corr=LC-wPBE ExCW=0 ScaHFX=  1.000000
 ScaDFX=  1.000000  0.000000  1.000000  1.000000 ScalE2=  1.000000  1.000000
 IRadAn=      0 IRanWt=     -1 IRanGd=            0 ICorTp=0 IEmpDi=  4
  HFx wShort=  0.000000 wLong=  0.400000 cFull=  0.000000 cShort=  0.000000 cLong=  1.000000
  DFx wShort=  0.000000 wLong=  0.400000 cFull=  0.000000 cShort=  0.000000 cLong=  1.000000
 NAtoms=   15 NActive=   15 NUniq=   15 SFac= 1.00D+00 NAtFMM=   60 NAOKFM=F Big=F
 Integral buffers will be    131072 words long.
 Raffenetti 2 integral format.
 Two-electron integral symmetry is turned on.
 Leave Link  301 at Sat Aug 28 23:52:58 2021, MaxMem= 17179869184 cpu:         3.7
 (Enter /public3/home/sc51754/softwares/g09e01/l302.exe)
 NPDir=0 NMtPBC=     1 NCelOv=     1 NCel=       1 NClECP=     1 NCelD=      1
         NCelK=      1 NCelE2=     1 NClLst=     1 CellRange=     0.0.
 One-electron integrals computed using PRISM.
 NBasis=   338 RedAO= T EigKep=  1.43D-04  NBF=   338
 NBsUse=   338 1.00D-06 EigRej= -1.00D+00 NBFU=   338
 Precomputing XC quadrature grid using
 IXCGrd= 4 IRadAn=           0 IRanWt=          -1 IRanGd=           0 AccXCQ= 0.00D+00.
 Generated NRdTot=       0 NPtTot=           0 NUsed=           0 NTot=          32
 NSgBfM=   385   385   385   385   385 MxSgAt=    15 MxSgA2=    15.
 Leave Link  302 at Sat Aug 28 23:52:59 2021, MaxMem= 17179869184 cpu:        53.5
 (Enter /public3/home/sc51754/softwares/g09e01/l303.exe)
 DipDrv:  MaxL=1.
 Leave Link  303 at Sat Aug 28 23:53:00 2021, MaxMem= 17179869184 cpu:        13.1
 (Enter /public3/home/sc51754/softwares/g09e01/l401.exe)
 ExpMin= 7.41D-02 ExpMax= 1.48D+04 ExpMxC= 5.05D+02 IAcc=2 IRadAn=         4 AccDes= 0.00D+00
 Harris functional with IExCor=32609 and IRadAn=       4 diagonalized for initial guess.
 HarFok:  IExCor=32609 AccDes= 0.00D+00 IRadAn=         4 IDoV= 1 UseB2=F ITyADJ=14
 ICtDFT=  3500011 ScaDFX=  1.000000  1.000000  1.000000  1.000000
 FoFCou: FMM=F IPFlag=           0 FMFlag=      100000 FMFlg1=           0
         NFxFlg=           0 DoJE=T BraDBF=F KetDBF=T FulRan=T
         wScrn=  0.000000 ICntrl=     500 IOpCl=  0 I1Cent=   200000004 NGrid=           0
         NMat0=    1 NMatS0=      1 NMatT0=    0 NMatD0=    1 NMtDS0=    0 NMtDT0=    0
 Petite list used in FoFCou.
 Harris En= -399.833884231968    
 JPrj=0 DoOrth=F DoCkMO=F.
 Leave Link  401 at Sat Aug 28 23:53:01 2021, MaxMem= 17179869184 cpu:        63.1
 (Enter /public3/home/sc51754/softwares/g09e01/l502.exe)
 Closed shell SCF:
 Using DIIS extrapolation, IDIIS=  1040.
 Integral symmetry usage will be decided dynamically.
 Keep R1 ints in memory in canonical form, NReq=3311562672.
 IVT=      490665 IEndB=      490665 NGot= 17179869184 MDV= 13897062548
 LenX= 13897062548 LenY= 13896913882
 Requested convergence on RMS density matrix=1.00D-08 within 128 cycles.
 Requested convergence on MAX density matrix=1.00D-06.
 Requested convergence on             energy=1.00D-06.
 No special actions if energy rises.
 FoFCou: FMM=F IPFlag=           0 FMFlag=           0 FMFlg1=           0
         NFxFlg=           0 DoJE=F BraDBF=F KetDBF=F FulRan=T
         wScrn=  0.000000 ICntrl=     600 IOpCl=  0 I1Cent=           0 NGrid=           0
         NMat0=    1 NMatS0=  57291 NMatT0=    0 NMatD0=    1 NMtDS0=    0 NMtDT0=    0
 Symmetry not used in FoFCou.
 Integral accuracy reduced to 1.0D-05 until final iterations.

 Cycle   1  Pass 0  IDiag  1:
 E= -399.626013391119    
 DIIS: error= 2.11D-02 at cycle   1 NSaved=   1.
 NSaved= 1 IEnMin= 1 EnMin= -399.626013391119     IErMin= 1 ErrMin= 2.11D-02
 ErrMax= 2.11D-02  0.00D+00 EMaxC= 1.00D-01 BMatC= 2.63D-01 BMatP= 2.63D-01
 IDIUse=3 WtCom= 7.89D-01 WtEn= 2.11D-01
 Coeff-Com:  0.100D+01
 Coeff-En:   0.100D+01
 Coeff:      0.100D+01
 Gap=     0.349 Goal=   None    Shift=    0.000
 GapD=    0.349 DampG=1.000 DampE=0.500 DampFc=0.5000 IDamp=-1.
 Damping current iteration by 5.00D-01
 RMSDP=1.86D-03 MaxDP=1.04D-01              OVMax= 1.34D-01

 Cycle   2  Pass 0  IDiag  1:
 E= -399.734210729013     Delta-E=       -0.108197337894 Rises=F Damp=T
 DIIS: error= 6.51D-03 at cycle   2 NSaved=   2.
 NSaved= 2 IEnMin= 2 EnMin= -399.734210729013     IErMin= 2 ErrMin= 6.51D-03
 ErrMax= 6.51D-03  0.00D+00 EMaxC= 1.00D-01 BMatC= 1.33D-02 BMatP= 2.63D-01
 IDIUse=3 WtCom= 9.35D-01 WtEn= 6.51D-02
 Coeff-Com: -0.842D-01 0.108D+01
 Coeff-En:   0.000D+00 0.100D+01
 Coeff:     -0.787D-01 0.108D+01
 Gap=     0.412 Goal=   None    Shift=    0.000
 RMSDP=4.64D-04 MaxDP=2.57D-02 DE=-1.08D-01 OVMax= 6.78D-02

 Cycle   3  Pass 0  IDiag  1:
 E= -399.832335943883     Delta-E=       -0.098125214870 Rises=F Damp=F
 DIIS: error= 2.25D-03 at cycle   3 NSaved=   3.
 NSaved= 3 IEnMin= 3 EnMin= -399.832335943883     IErMin= 3 ErrMin= 2.25D-03
 ErrMax= 2.25D-03  0.00D+00 EMaxC= 1.00D-01 BMatC= 4.81D-03 BMatP= 1.33D-02
 IDIUse=3 WtCom= 9.78D-01 WtEn= 2.25D-02
 Coeff-Com: -0.651D-01 0.414D+00 0.651D+00
 Coeff-En:   0.000D+00 0.000D+00 0.100D+01
 Coeff:     -0.637D-01 0.405D+00 0.659D+00
 Gap=     0.367 Goal=   None    Shift=    0.000
 RMSDP=1.65D-04 MaxDP=1.03D-02 DE=-9.81D-02 OVMax= 1.94D-02

 Cycle   4  Pass 0  IDiag  1:
 E= -399.835636489386     Delta-E=       -0.003300545502 Rises=F Damp=F
 DIIS: error= 1.02D-03 at cycle   4 NSaved=   4.
 NSaved= 4 IEnMin= 4 EnMin= -399.835636489386     IErMin= 4 ErrMin= 1.02D-03
 ErrMax= 1.02D-03  0.00D+00 EMaxC= 1.00D-01 BMatC= 5.76D-04 BMatP= 4.81D-03
 IDIUse=3 WtCom= 9.90D-01 WtEn= 1.02D-02
 Coeff-Com: -0.125D-01 0.504D-01 0.273D+00 0.689D+00
 Coeff-En:   0.000D+00 0.000D+00 0.000D+00 0.100D+01
 Coeff:     -0.123D-01 0.498D-01 0.271D+00 0.692D+00
 Gap=     0.369 Goal=   None    Shift=    0.000
 RMSDP=5.02D-05 MaxDP=3.61D-03 DE=-3.30D-03 OVMax= 4.40D-03

 Cycle   5  Pass 0  IDiag  1:
 E= -399.836064574662     Delta-E=       -0.000428085277 Rises=F Damp=F
 DIIS: error= 3.30D-04 at cycle   5 NSaved=   5.
 NSaved= 5 IEnMin= 5 EnMin= -399.836064574662     IErMin= 5 ErrMin= 3.30D-04
 ErrMax= 3.30D-04  0.00D+00 EMaxC= 1.00D-01 BMatC= 3.29D-05 BMatP= 5.76D-04
 IDIUse=3 WtCom= 9.97D-01 WtEn= 3.30D-03
 Coeff-Com:  0.346D-03-0.810D-02 0.563D-01 0.245D+00 0.707D+00
 Coeff-En:   0.000D+00 0.000D+00 0.000D+00 0.000D+00 0.100D+01
 Coeff:      0.345D-03-0.807D-02 0.561D-01 0.244D+00 0.708D+00
 Gap=     0.369 Goal=   None    Shift=    0.000
 RMSDP=1.49D-05 MaxDP=7.84D-04 DE=-4.28D-04 OVMax= 2.40D-03

 Cycle   6  Pass 0  IDiag  1:
 E= -399.836095474966     Delta-E=       -0.000030900304 Rises=F Damp=F
 DIIS: error= 1.13D-04 at cycle   6 NSaved=   6.
 NSaved= 6 IEnMin= 6 EnMin= -399.836095474966     IErMin= 6 ErrMin= 1.13D-04
 ErrMax= 1.13D-04  0.00D+00 EMaxC= 1.00D-01 BMatC= 5.10D-06 BMatP= 3.29D-05
 IDIUse=3 WtCom= 9.99D-01 WtEn= 1.13D-03
 Coeff-Com:  0.146D-02-0.794D-02-0.117D-01-0.174D-02 0.264D+00 0.756D+00
 Coeff-En:   0.000D+00 0.000D+00 0.000D+00 0.000D+00 0.000D+00 0.100D+01
 Coeff:      0.146D-02-0.793D-02-0.117D-01-0.174D-02 0.264D+00 0.756D+00
 Gap=     0.369 Goal=   None    Shift=    0.000
 RMSDP=7.25D-06 MaxDP=2.68D-04 DE=-3.09D-05 OVMax= 1.27D-03

 Initial convergence to 1.0D-05 achieved.  Increase integral accuracy.
 Cycle   7  Pass 1  IDiag  1:
 E= -399.836035413301     Delta-E=        0.000060061664 Rises=F Damp=F
 DIIS: error= 5.13D-05 at cycle   1 NSaved=   1.
 NSaved= 1 IEnMin= 1 EnMin= -399.836035413301     IErMin= 1 ErrMin= 5.13D-05
 ErrMax= 5.13D-05  0.00D+00 EMaxC= 1.00D-01 BMatC= 6.58D-07 BMatP= 6.58D-07
 IDIUse=1 WtCom= 1.00D+00 WtEn= 0.00D+00
 Coeff-Com:  0.100D+01
 Coeff:      0.100D+01
 Gap=     0.369 Goal=   None    Shift=    0.000
 RMSDP=7.25D-06 MaxDP=2.68D-04 DE= 6.01D-05 OVMax= 9.73D-04

 Cycle   8  Pass 1  IDiag  1:
 E= -399.836037661700     Delta-E=       -0.000002248398 Rises=F Damp=F
 DIIS: error= 4.15D-05 at cycle   2 NSaved=   2.
 NSaved= 2 IEnMin= 2 EnMin= -399.836037661700     IErMin= 2 ErrMin= 4.15D-05
 ErrMax= 4.15D-05  0.00D+00 EMaxC= 1.00D-01 BMatC= 2.50D-07 BMatP= 6.58D-07
 IDIUse=1 WtCom= 1.00D+00 WtEn= 0.00D+00
 Coeff-Com:  0.236D+00 0.764D+00
 Coeff:      0.236D+00 0.764D+00
 Gap=     0.369 Goal=   None    Shift=    0.000
 RMSDP=1.99D-06 MaxDP=9.59D-05 DE=-2.25D-06 OVMax= 4.68D-04

 Cycle   9  Pass 1  IDiag  1:
 E= -399.836038433623     Delta-E=       -0.000000771924 Rises=F Damp=F
 DIIS: error= 2.32D-05 at cycle   3 NSaved=   3.
 NSaved= 3 IEnMin= 3 EnMin= -399.836038433623     IErMin= 3 ErrMin= 2.32D-05
 ErrMax= 2.32D-05  0.00D+00 EMaxC= 1.00D-01 BMatC= 1.25D-07 BMatP= 2.50D-07
 IDIUse=1 WtCom= 1.00D+00 WtEn= 0.00D+00
 Coeff-Com: -0.397D+00 0.275D+00 0.112D+01
 Coeff:     -0.397D+00 0.275D+00 0.112D+01
 Gap=     0.369 Goal=   None    Shift=    0.000
 RMSDP=2.63D-06 MaxDP=9.20D-05 DE=-7.72D-07 OVMax= 6.65D-04

 Cycle  10  Pass 1  IDiag  1:
 E= -399.836039184826     Delta-E=       -0.000000751203 Rises=F Damp=F
 DIIS: error= 8.23D-06 at cycle   4 NSaved=   4.
 NSaved= 4 IEnMin= 4 EnMin= -399.836039184826     IErMin= 4 ErrMin= 8.23D-06
 ErrMax= 8.23D-06  0.00D+00 EMaxC= 1.00D-01 BMatC= 1.07D-08 BMatP= 1.25D-07
 IDIUse=1 WtCom= 1.00D+00 WtEn= 0.00D+00
 Coeff-Com: -0.128D+00-0.828D-01 0.205D+00 0.101D+01
 Coeff:     -0.128D+00-0.828D-01 0.205D+00 0.101D+01
 Gap=     0.369 Goal=   None    Shift=    0.000
 RMSDP=1.04D-06 MaxDP=3.81D-05 DE=-7.51D-07 OVMax= 2.73D-04

 Cycle  11  Pass 1  IDiag  1:
 E= -399.836039246946     Delta-E=       -0.000000062120 Rises=F Damp=F
 DIIS: error= 2.94D-06 at cycle   5 NSaved=   5.
 NSaved= 5 IEnMin= 5 EnMin= -399.836039246946     IErMin= 5 ErrMin= 2.94D-06
 ErrMax= 2.94D-06  0.00D+00 EMaxC= 1.00D-01 BMatC= 2.04D-09 BMatP= 1.07D-08
 IDIUse=1 WtCom= 1.00D+00 WtEn= 0.00D+00
 Coeff-Com:  0.187D-02-0.652D-01-0.586D-01 0.388D+00 0.734D+00
 Coeff:      0.187D-02-0.652D-01-0.586D-01 0.388D+00 0.734D+00
 Gap=     0.369 Goal=   None    Shift=    0.000
 RMSDP=2.07D-07 MaxDP=7.32D-06 DE=-6.21D-08 OVMax= 5.08D-05

 Cycle  12  Pass 1  IDiag  1:
 E= -399.836039250673     Delta-E=       -0.000000003727 Rises=F Damp=F
 DIIS: error= 7.18D-07 at cycle   6 NSaved=   6.
 NSaved= 6 IEnMin= 6 EnMin= -399.836039250673     IErMin= 6 ErrMin= 7.18D-07
 ErrMax= 7.18D-07  0.00D+00 EMaxC= 1.00D-01 BMatC= 1.66D-10 BMatP= 2.04D-09
 IDIUse=1 WtCom= 1.00D+00 WtEn= 0.00D+00
 Coeff-Com:  0.149D-01-0.137D-01-0.363D-01-0.426D-02 0.172D+00 0.868D+00
 Coeff:      0.149D-01-0.137D-01-0.363D-01-0.426D-02 0.172D+00 0.868D+00
 Gap=     0.369 Goal=   None    Shift=    0.000
 RMSDP=7.18D-08 MaxDP=2.50D-06 DE=-3.73D-09 OVMax= 1.37D-05

 Cycle  13  Pass 1  IDiag  1:
 E= -399.836039171797     Delta-E=        0.000000078876 Rises=F Damp=F
 DIIS: error= 2.82D-07 at cycle   7 NSaved=   7.
 NSaved= 7 IEnMin= 6 EnMin= -399.836039250673     IErMin= 7 ErrMin= 2.82D-07
 ErrMax= 2.82D-07  0.00D+00 EMaxC= 1.00D-01 BMatC= 4.22D-11 BMatP= 1.66D-10
 IDIUse=1 WtCom= 1.00D+00 WtEn= 0.00D+00
 Coeff-Com:  0.478D-02 0.263D-02-0.145D-02-0.467D-01-0.498D-01 0.318D+00
 Coeff-Com:  0.773D+00
 Coeff:      0.478D-02 0.263D-02-0.145D-02-0.467D-01-0.498D-01 0.318D+00
 Coeff:      0.773D+00
 Gap=     0.369 Goal=   None    Shift=    0.000
 RMSDP=2.49D-08 MaxDP=1.12D-06 DE= 7.89D-08 OVMax= 3.64D-06

 Cycle  14  Pass 1  IDiag  1:
 E= -399.836039251134     Delta-E=       -0.000000079337 Rises=F Damp=F
 DIIS: error= 1.80D-07 at cycle   8 NSaved=   8.
 NSaved= 8 IEnMin= 8 EnMin= -399.836039251134     IErMin= 8 ErrMin= 1.80D-07
 ErrMax= 1.80D-07  0.00D+00 EMaxC= 1.00D-01 BMatC= 9.45D-12 BMatP= 4.22D-11
 IDIUse=1 WtCom= 1.00D+00 WtEn= 0.00D+00
 Coeff-Com: -0.192D-02 0.339D-02 0.891D-02-0.148D-01-0.731D-01-0.982D-01
 Coeff-Com:  0.321D+00 0.855D+00
 Coeff:     -0.192D-02 0.339D-02 0.891D-02-0.148D-01-0.731D-01-0.982D-01
 Coeff:      0.321D+00 0.855D+00
 Gap=     0.369 Goal=   None    Shift=    0.000
 RMSDP=1.42D-08 MaxDP=5.46D-07 DE=-7.93D-08 OVMax= 3.15D-06

 Cycle  15  Pass 1  IDiag  1:
 E= -399.836039171902     Delta-E=        0.000000079233 Rises=F Damp=F
 DIIS: error= 4.46D-08 at cycle   9 NSaved=   9.
 NSaved= 9 IEnMin= 8 EnMin= -399.836039251134     IErMin= 9 ErrMin= 4.46D-08
 ErrMax= 4.46D-08  0.00D+00 EMaxC= 1.00D-01 BMatC= 7.05D-13 BMatP= 9.45D-12
 IDIUse=1 WtCom= 1.00D+00 WtEn= 0.00D+00
 Coeff-Com: -0.103D-02 0.616D-03 0.288D-02 0.116D-02-0.197D-01-0.543D-01
 Coeff-Com:  0.224D-01 0.201D+00 0.846D+00
 Coeff:     -0.103D-02 0.616D-03 0.288D-02 0.116D-02-0.197D-01-0.543D-01
 Coeff:      0.224D-01 0.201D+00 0.846D+00
 Gap=     0.369 Goal=   None    Shift=    0.000
 RMSDP=4.01D-09 MaxDP=2.32D-07 DE= 7.92D-08 OVMax= 6.77D-07

 Cycle  16  Pass 1  IDiag  1:
 E= -399.836039171901     Delta-E=        0.000000000000 Rises=F Damp=F
 DIIS: error= 2.37D-08 at cycle  10 NSaved=  10.
 NSaved=10 IEnMin= 8 EnMin= -399.836039251134     IErMin=10 ErrMin= 2.37D-08
 ErrMax= 2.37D-08  0.00D+00 EMaxC= 1.00D-01 BMatC= 1.11D-13 BMatP= 7.05D-13
 IDIUse=1 WtCom= 1.00D+00 WtEn= 0.00D+00
 Coeff-Com:  0.217D-03-0.698D-03-0.136D-02 0.399D-02 0.973D-02 0.144D-01
 Coeff-Com: -0.601D-01-0.152D+00 0.190D+00 0.996D+00
 Coeff:      0.217D-03-0.698D-03-0.136D-02 0.399D-02 0.973D-02 0.144D-01
 Coeff:     -0.601D-01-0.152D+00 0.190D+00 0.996D+00
 Gap=     0.369 Goal=   None    Shift=    0.000
 RMSDP=2.19D-09 MaxDP=8.45D-08 DE= 3.41D-13 OVMax= 4.40D-07

 SCF Done:  E(RLC-wPBE) =  -399.836039172     A.U. after   16 cycles
            NFock= 16  Conv=0.22D-08     -V/T= 2.0029
 KE= 3.986758578804D+02 PE=-1.680685531002D+03 EE= 5.099791932652D+02
 Leave Link  502 at Sat Aug 28 23:53:29 2021, MaxMem= 17179869184 cpu:       486.6
 (Enter /public3/home/sc51754/softwares/g09e01/l801.exe)
 DoSCS=F DFT=T ScalE2(SS,OS)=  1.000000  1.000000
 Range of M.O.s used for correlation:     1   338
 NBasis=   338 NAE=    30 NBE=    30 NFC=     0 NFV=     0
 NROrb=    338 NOA=    30 NOB=    30 NVA=   308 NVB=   308

 **** Warning!!: The largest alpha MO coefficient is  0.13661131D+02

 Leave Link  801 at Sat Aug 28 23:53:29 2021, MaxMem= 17179869184 cpu:         0.6
 (Enter /public3/home/sc51754/softwares/g09e01/l1101.exe)
 Using compressed storage, NAtomX=    15.
 Will process     16 centers per pass.
 Leave Link 1101 at Sat Aug 28 23:53:30 2021, MaxMem= 17179869184 cpu:        52.3
 (Enter /public3/home/sc51754/softwares/g09e01/l1102.exe)
 Symmetrizing basis deriv contribution to polar:
 IMax=3 JMax=2 DiffMx= 0.00D+00
 Leave Link 1102 at Sat Aug 28 23:53:31 2021, MaxMem= 17179869184 cpu:         7.0
 (Enter /public3/home/sc51754/softwares/g09e01/l1110.exe)
 Forming Gx(P) for the SCF density, NAtomX=    15.
 Integral derivatives from FoFJK, PRISM(SPDF).
 Do as many integral derivatives as possible in FoFJK.
 G2DrvN: MDV=   17179868960.
 G2DrvN: will do    16 centers at a time, making    1 passes.
 Calling FoFCou, ICntrl=  3107 FMM=F I1Cent=   0 AccDes= 0.00D+00.
 FoFJK:  IHMeth= 1 ICntrl=    3107 DoSepK=T KAlg= 0 I1Cent=   0 FoldK=F
 IRaf=         1 NMat=   1 IRICut=       1 DoRegI=T DoRafI=F ISym2E= 0.
 FoFCou: FMM=F IPFlag=           0 FMFlag=      100000 FMFlg1=           0
         NFxFlg=           0 DoJE=F BraDBF=F KetDBF=F FulRan=T
         wScrn=  0.000000 ICntrl=    3507 IOpCl=  0 I1Cent=           0 NGrid=           0
         NMat0=    1 NMatS0=      1 NMatT0=    0 NMatD0=    1 NMtDS0=    0 NMtDT0=    0
 Symmetry not used in FoFCou.
 End of G2Drv F.D. properties file   721 does not exist.
 End of G2Drv F.D. properties file   722 does not exist.
 End of G2Drv F.D. properties file   788 does not exist.
 Leave Link 1110 at Sat Aug 28 23:53:44 2021, MaxMem= 17179869184 cpu:       827.9
 (Enter /public3/home/sc51754/softwares/g09e01/l1002.exe)
 Minotr:  Closed shell wavefunction.
          IDoAtm=111111111111111
          Direct CPHF calculation.
          Differentiating once with respect to nuclear coordinates.
          Requested convergence is 1.0D-08 RMS, and 1.0D-07 maximum.
          Secondary convergence is 1.0D-12 RMS, and 1.0D-12 maximum.
          NewPWx=T KeepS1=F KeepF1=F KeepIn=T MapXYZ=F SortEE=F KeepMc=T.
          MDV=   17179868692 using IRadAn=       2.
 Generate precomputed XC quadrature information.
 Keep R1 ints in memory in canonical form, NReq=3311077877.
 FoFCou: FMM=F IPFlag=           0 FMFlag=           0 FMFlg1=           0
         NFxFlg=           0 DoJE=F BraDBF=F KetDBF=F FulRan=T
         wScrn=  0.000000 ICntrl=     600 IOpCl=  0 I1Cent=           0 NGrid=           0
         NMat0=    1 NMatS0=  57291 NMatT0=    0 NMatD0=    1 NMtDS0=    0 NMtDT0=    0
 Symmetry not used in FoFCou.
          Solving linear equations simultaneously, MaxMat=       0.
          There are    48 degrees of freedom in the 1st order CPHF.  IDoFFX=6 NUNeed=     0.
     42 vectors produced by pass  0 Test12= 1.92D-14 2.08D-09 XBig12= 6.90D-02 7.11D-02.
 AX will form    42 AO Fock derivatives at one time.
     42 vectors produced by pass  1 Test12= 1.92D-14 2.08D-09 XBig12= 6.69D-03 2.24D-02.
     42 vectors produced by pass  2 Test12= 1.92D-14 2.08D-09 XBig12= 2.56D-04 3.04D-03.
     42 vectors produced by pass  3 Test12= 1.92D-14 2.08D-09 XBig12= 3.39D-06 4.12D-04.
     42 vectors produced by pass  4 Test12= 1.92D-14 2.08D-09 XBig12= 3.81D-08 5.41D-05.
     42 vectors produced by pass  5 Test12= 1.92D-14 2.08D-09 XBig12= 3.70D-10 3.59D-06.
     41 vectors produced by pass  6 Test12= 1.92D-14 2.08D-09 XBig12= 2.79D-12 1.96D-07.
     23 vectors produced by pass  7 Test12= 1.92D-14 2.08D-09 XBig12= 1.63D-14 1.47D-08.
      1 vectors produced by pass  8 Test12= 1.92D-14 2.08D-09 XBig12= 1.95D-16 2.10D-09.
 InvSVY:  IOpt=1 It=  1 EMax= 1.33D-15
 Solved reduced A of dimension   317 with    42 vectors.
 End of Minotr F.D. properties file   721 does not exist.
 End of Minotr F.D. properties file   722 does not exist.
 End of Minotr F.D. properties file   788 does not exist.
 Leave Link 1002 at Sat Aug 28 23:54:04 2021, MaxMem= 17179869184 cpu:      1181.0
 (Enter /public3/home/sc51754/softwares/g09e01/l601.exe)
 Copying SCF densities to generalized density rwf, IOpCl= 0 IROHF=0.

 **********************************************************************

            Population analysis using the SCF density.

 **********************************************************************

 Orbital symmetries:
       Occupied  (A) (A) (A) (A) (A) (A) (A) (A) (A) (A) (A) (A)
                 (A) (A) (A) (A) (A) (A) (A) (A) (A) (A) (A) (A)
                 (A) (A) (A) (A) (A) (A)
       Virtual   (A) (A) (A) (A) (A) (A) (A) (A) (A) (A) (A) (A)
                 (A) (A) (A) (A) (A) (A) (A) (A) (A) (A) (A) (A)
                 (A) (A) (A) (A) (A) (A) (A) (A) (A) (A) (A) (A)
                 (A) (A) (A) (A) (A) (A) (A) (A) (A) (A) (A) (A)
                 (A) (A) (A) (A) (A) (A) (A) (A) (A) (A) (A) (A)
                 (A) (A) (A) (A) (A) (A) (A) (A) (A) (A) (A) (A)
                 (A) (A) (A) (A) (A) (A) (A) (A) (A) (A) (A) (A)
                 (A) (A) (A) (A) (A) (A) (A) (A) (A) (A) (A) (A)
                 (A) (A) (A) (A) (A) (A) (A) (A) (A) (A) (A) (A)
                 (A) (A) (A) (A) (A) (A) (A) (A) (A) (A) (A) (A)
                 (A) (A) (A) (A) (A) (A) (A) (A) (A) (A) (A) (A)
                 (A) (A) (A) (A) (A) (A) (A) (A) (A) (A) (A) (A)
                 (A) (A) (A) (A) (A) (A) (A) (A) (A) (A) (A) (A)
                 (A) (A) (A) (A) (A) (A) (A) (A) (A) (A) (A) (A)
                 (A) (A) (A) (A) (A) (A) (A) (A) (A) (A) (A) (A)
                 (A) (A) (A) (A) (A) (A) (A) (A) (A) (A) (A) (A)
                 (A) (A) (A) (A) (A) (A) (A) (A) (A) (A) (A) (A)
                 (A) (A) (A) (A) (A) (A) (A) (A) (A) (A) (A) (A)
                 (A) (A) (A) (A) (A) (A) (A) (A) (A) (A) (A) (A)
                 (A) (A) (A) (A) (A) (A) (A) (A) (A) (A) (A) (A)
                 (A) (A) (A) (A) (A) (A) (A) (A) (A) (A) (A) (A)
                 (A) (A) (A) (A) (A) (A) (A) (A) (A) (A) (A) (A)
                 (A) (A) (A) (A) (A) (A) (A) (A) (A) (A) (A) (A)
                 (A) (A) (A) (A) (A) (A) (A) (A) (A) (A) (A) (A)
                 (A) (A) (A) (A) (A) (A) (A) (A) (A) (A) (A) (A)
                 (A) (A) (A) (A) (A) (A) (A) (A)
 The electronic state is 1-A.
 Alpha  occ. eigenvalues --  -18.97511 -18.92161 -14.22090 -10.20178 -10.16234
 Alpha  occ. eigenvalues --  -10.13560 -10.11437 -10.11100  -1.20109  -1.13997
 Alpha  occ. eigenvalues --   -1.08422  -0.96743  -0.90066  -0.79881  -0.76324
 Alpha  occ. eigenvalues --   -0.70692  -0.69282  -0.63602  -0.61747  -0.59068
 Alpha  occ. eigenvalues --   -0.58072  -0.55520  -0.52680  -0.50802  -0.48970
 Alpha  occ. eigenvalues --   -0.45924  -0.42205  -0.41848  -0.38495  -0.32883
 Alpha virt. eigenvalues --    0.04035   0.08064   0.08638   0.09812   0.11092
 Alpha virt. eigenvalues --    0.12844   0.14666   0.19117   0.19242   0.22691
 Alpha virt. eigenvalues --    0.23325   0.24591   0.25744   0.26271   0.27837
 Alpha virt. eigenvalues --    0.28344   0.29427   0.30323   0.32518   0.34296
 Alpha virt. eigenvalues --    0.35783   0.37324   0.37760   0.38142   0.39239
 Alpha virt. eigenvalues --    0.40772   0.41121   0.42222   0.44513   0.44707
 Alpha virt. eigenvalues --    0.46134   0.47401   0.48821   0.49512   0.51282
 Alpha virt. eigenvalues --    0.52161   0.53322   0.54469   0.56224   0.57002
 Alpha virt. eigenvalues --    0.59980   0.62299   0.62767   0.65190   0.67519
 Alpha virt. eigenvalues --    0.69312   0.72790   0.73364   0.74205   0.74417
 Alpha virt. eigenvalues --    0.76485   0.78171   0.78788   0.83098   0.85888
 Alpha virt. eigenvalues --    0.88111   0.90321   0.92395   0.93471   0.95567
 Alpha virt. eigenvalues --    0.99572   1.01350   1.02501   1.04385   1.05403
 Alpha virt. eigenvalues --    1.08057   1.09039   1.11146   1.15079   1.17337
 Alpha virt. eigenvalues --    1.18855   1.20139   1.22407   1.24928   1.25795
 Alpha virt. eigenvalues --    1.26061   1.27274   1.28124   1.30005   1.32251
 Alpha virt. eigenvalues --    1.33307   1.35352   1.37046   1.37769   1.38493
 Alpha virt. eigenvalues --    1.41988   1.43290   1.45298   1.49869   1.53244
 Alpha virt. eigenvalues --    1.54412   1.56482   1.58162   1.59832   1.61837
 Alpha virt. eigenvalues --    1.62681   1.64225   1.66341   1.68895   1.70568
 Alpha virt. eigenvalues --    1.71446   1.73054   1.76177   1.78926   1.79204
 Alpha virt. eigenvalues --    1.80612   1.83034   1.84887   1.86644   1.90708
 Alpha virt. eigenvalues --    1.92862   1.93879   1.97023   1.98577   1.99120
 Alpha virt. eigenvalues --    2.00600   2.01853   2.06634   2.10036   2.12753
 Alpha virt. eigenvalues --    2.14833   2.18220   2.19009   2.20566   2.22602
 Alpha virt. eigenvalues --    2.24062   2.27786   2.28795   2.33305   2.34169
 Alpha virt. eigenvalues --    2.36111   2.39554   2.40761   2.41731   2.45698
 Alpha virt. eigenvalues --    2.47595   2.58433   2.71383   2.76849   2.88462
 Alpha virt. eigenvalues --    2.95330   2.96838   2.99721   3.06071   3.07633
 Alpha virt. eigenvalues --    3.23430   3.27904   3.28557   3.29316   3.32480
 Alpha virt. eigenvalues --    3.34189   3.36819   3.37753   3.42238   3.44790
 Alpha virt. eigenvalues --    3.47633   3.48311   3.53054   3.54317   3.56248
 Alpha virt. eigenvalues --    3.57393   3.60193   3.62637   3.66749   3.69397
 Alpha virt. eigenvalues --    3.70113   3.72148   3.73348   3.74401   3.75581
 Alpha virt. eigenvalues --    3.77196   3.79597   3.81964   3.85443   3.87583
 Alpha virt. eigenvalues --    3.90323   3.90691   3.95709   4.00398   4.01014
 Alpha virt. eigenvalues --    4.04115   4.07333   4.07905   4.08805   4.13473
 Alpha virt. eigenvalues --    4.15350   4.16892   4.18318   4.18623   4.19812
 Alpha virt. eigenvalues --    4.21890   4.22381   4.25474   4.26333   4.27981
 Alpha virt. eigenvalues --    4.28815   4.30730   4.31511   4.34117   4.34398
 Alpha virt. eigenvalues --    4.35211   4.36565   4.39195   4.39983   4.42400
 Alpha virt. eigenvalues --    4.43093   4.44781   4.45535   4.45820   4.46833
 Alpha virt. eigenvalues --    4.48864   4.51706   4.52542   4.53883   4.55668
 Alpha virt. eigenvalues --    4.57867   4.58105   4.58849   4.59220   4.61158
 Alpha virt. eigenvalues --    4.63160   4.64385   4.67610   4.68390   4.69271
 Alpha virt. eigenvalues --    4.72336   4.74325   4.77746   4.79906   4.85996
 Alpha virt. eigenvalues --    4.86781   4.90013   4.93697   4.94983   4.97497
 Alpha virt. eigenvalues --    4.99449   5.01671   5.04447   5.06537   5.08468
 Alpha virt. eigenvalues --    5.11259   5.14461   5.15656   5.17716   5.21758
 Alpha virt. eigenvalues --    5.24117   5.28114   5.31142   5.33390   5.36518
 Alpha virt. eigenvalues --    5.38073   5.40594   5.44105   5.45781   5.47649
 Alpha virt. eigenvalues --    5.49080   5.52926   5.53504   5.55344   5.59872
 Alpha virt. eigenvalues --    5.61360   5.63783   5.64928   5.68081   5.69853
 Alpha virt. eigenvalues --    5.73543   5.74432   5.76377   5.81584   5.85842
 Alpha virt. eigenvalues --    5.86416   5.93153   5.94000   6.05849   6.09956
 Alpha virt. eigenvalues --    6.14348   6.15916   6.23989   6.24643   6.29651
 Alpha virt. eigenvalues --    6.38003   6.40566   6.46146   6.47406   6.56996
 Alpha virt. eigenvalues --    6.58444   6.62109   6.64518   6.66653   6.73803
 Alpha virt. eigenvalues --    6.79616   6.81267   6.86108   6.94302   7.14625
 Alpha virt. eigenvalues --    7.22735   7.27243   7.39967   7.61176   7.90706
 Alpha virt. eigenvalues --    9.56770  12.21360  13.19512  15.33964  17.17677
 Alpha virt. eigenvalues --   18.42325  18.66572  22.65232
          Condensed to atoms (all electrons):
               1          2          3          4          5          6
     1  O    8.216622  -0.097813   0.432503  -0.076839   0.004917   0.007074
     2  N   -0.097813   6.727695   0.442931  -0.024196   0.449953  -0.023065
     3  C    0.432503   0.442931   4.337656   0.526222  -0.064451  -0.055735
     4  C   -0.076839  -0.024196   0.526222   4.835020  -0.040317   0.546257
     5  C    0.004917   0.449953  -0.064451  -0.040317   4.559690  -0.074912
     6  C    0.007074  -0.023065  -0.055735   0.546257  -0.074912   4.692263
     7  C    0.000496  -0.037624  -0.035207  -0.056364   0.573178   0.478233
     8  H    0.211947  -0.000886  -0.009461   0.003673  -0.000528  -0.000859
     9  H    0.003938   0.005530  -0.026014   0.441288  -0.001332  -0.030978
    10  H   -0.000623  -0.041092   0.002222  -0.002898   0.441096   0.007071
    11  H   -0.000400  -0.001295   0.006363  -0.028658   0.005878   0.430636
    12  H    0.000033   0.004334  -0.001472   0.005472  -0.023896  -0.028648
    13  O   -0.148583  -0.180733  -0.007821  -0.002984   0.001408   0.000976
    14  H    0.006441   0.006723   0.001373   0.000452  -0.000721  -0.000082
    15  H    0.002539   0.167386  -0.010262   0.001968  -0.003328  -0.001221
               7          8          9         10         11         12
     1  O    0.000496   0.211947   0.003938  -0.000623  -0.000400   0.000033
     2  N   -0.037624  -0.000886   0.005530  -0.041092  -0.001295   0.004334
     3  C   -0.035207  -0.009461  -0.026014   0.002222   0.006363  -0.001472
     4  C   -0.056364   0.003673   0.441288  -0.002898  -0.028658   0.005472
     5  C    0.573178  -0.000528  -0.001332   0.441096   0.005878  -0.023896
     6  C    0.478233  -0.000859  -0.030978   0.007071   0.430636  -0.028648
     7  C    4.890002   0.000279   0.005011  -0.047520  -0.036040   0.437352
     8  H    0.000279   0.318849   0.000561   0.000135  -0.000002  -0.000007
     9  H    0.005011   0.000561   0.546331   0.000154  -0.004634  -0.000124
    10  H   -0.047520   0.000135   0.000154   0.586391  -0.000153  -0.002929
    11  H   -0.036040  -0.000002  -0.004634  -0.000153   0.572829  -0.004899
    12  H    0.437352  -0.000007  -0.000124  -0.002929  -0.004899   0.568542
    13  O   -0.001881   0.237165   0.000135   0.000270  -0.000008   0.000018
    14  H    0.000181  -0.012793  -0.000016  -0.000122   0.000001  -0.000003
    15  H    0.001817  -0.015141  -0.000204  -0.002548   0.000068  -0.000022
              13         14         15
     1  O   -0.148583   0.006441   0.002539
     2  N   -0.180733   0.006723   0.167386
     3  C   -0.007821   0.001373  -0.010262
     4  C   -0.002984   0.000452   0.001968
     5  C    0.001408  -0.000721  -0.003328
     6  C    0.000976  -0.000082  -0.001221
     7  C   -0.001881   0.000181   0.001817
     8  H    0.237165  -0.012793  -0.015141
     9  H    0.000135  -0.000016  -0.000204
    10  H    0.000270  -0.000122  -0.002548
    11  H   -0.000008   0.000001   0.000068
    12  H    0.000018  -0.000003  -0.000022
    13  O    7.841883   0.359001   0.277735
    14  H    0.359001   0.431690  -0.011684
    15  H    0.277735  -0.011684   0.357811
 Mulliken charges:
               1
     1  O   -0.562251
     2  N   -0.397847
     3  C    0.461153
     4  C   -0.128096
     5  C    0.173364
     6  C    0.052990
     7  C   -0.171913
     8  H    0.267068
     9  H    0.060354
    10  H    0.060549
    11  H    0.060315
    12  H    0.046250
    13  O   -0.376581
    14  H    0.219560
    15  H    0.235086
 Sum of Mulliken charges =  -0.00000
 Mulliken charges with hydrogens summed into heavy atoms:
               1
     1  O   -0.562251
     2  N   -0.397847
     3  C    0.461153
     4  C   -0.067742
     5  C    0.233913
     6  C    0.113305
     7  C   -0.125662
    13  O    0.345132
 APT charges:
               1
     1  O   -0.397087
     2  N   -0.399998
     3  C    0.037433
     4  C   -0.519437
     5  C   -0.313854
     6  C   -0.350817
     7  C   -0.517007
     8  H    0.270511
     9  H    0.464315
    10  H    0.445395
    11  H    0.585910
    12  H    0.597318
    13  O   -0.752566
    14  H    0.697515
    15  H    0.152369
 Sum of APT charges =  -0.00000
 APT charges with hydrogens summed into heavy atoms:
               1
     1  O   -0.397087
     2  N   -0.399998
     3  C    0.037433
     4  C   -0.055123
     5  C    0.131541
     6  C    0.235093
     7  C    0.080311
    13  O    0.367830
 Electronic spatial extent (au):  <R**2>=            946.0209
 Charge=             -0.0000 electrons
 Dipole moment (field-independent basis, Debye):
    X=             -1.6022    Y=             -2.5859    Z=              1.3418  Tot=              3.3248
 Quadrupole moment (field-independent basis, Debye-Ang):
   XX=            -40.8222   YY=            -45.1296   ZZ=            -48.9089
   XY=             -5.3745   XZ=              4.6301   YZ=             -1.5112
 Traceless Quadrupole moment (field-independent basis, Debye-Ang):
   XX=              4.1314   YY=             -0.1760   ZZ=             -3.9554
   XY=             -5.3745   XZ=              4.6301   YZ=             -1.5112
 Octapole moment (field-independent basis, Debye-Ang**2):
  XXX=             15.1438  YYY=            -11.0035  ZZZ=              1.1208  XYY=             -3.4428
  XXY=             -8.2027  XXZ=             15.2106  XZZ=             12.0485  YZZ=             -0.9408
  YYZ=              1.6109  XYZ=             -5.0954
 Hexadecapole moment (field-independent basis, Debye-Ang**3):
 XXXX=           -695.6015 YYYY=           -333.4740 ZZZZ=            -52.3353 XXXY=            -26.4882
 XXXZ=             49.5553 YYYX=            -19.8982 YYYZ=             -1.8844 ZZZX=              4.6464
 ZZZY=             -1.6794 XXYY=           -182.2536 XXZZ=           -144.6224 YYZZ=            -73.5693
 XXYZ=            -15.6947 YYXZ=              5.5622 ZZXY=             -4.9583
 N-N= 3.721944406840D+02 E-N=-1.680685531331D+03  KE= 3.986758578804D+02
  Exact polarizability:   0.000   0.000   0.000   0.000   0.000   0.000
 Approx polarizability:  95.608   4.561  87.290   0.687  -0.482  48.744
 No NMR shielding tensors so no spin-rotation constants.
 Leave Link  601 at Sat Aug 28 23:54:06 2021, MaxMem= 17179869184 cpu:        65.6
 (Enter /public3/home/sc51754/softwares/g09e01/l701.exe)
 Compute integral second derivatives.
 ... and contract with generalized density number  0.
 Leave Link  701 at Sat Aug 28 23:54:07 2021, MaxMem= 17179869184 cpu:        69.3
 (Enter /public3/home/sc51754/softwares/g09e01/l702.exe)
 L702 exits ... SP integral derivatives will be done elsewhere.
 Leave Link  702 at Sat Aug 28 23:54:07 2021, MaxMem= 17179869184 cpu:         0.7
 (Enter /public3/home/sc51754/softwares/g09e01/l703.exe)
 Compute integral second derivatives, UseDBF=F ICtDFT=           0.
 Integral derivatives from FoFJK, PRISM(SPDF).
 Calling FoFJK, ICntrl=    100147 FMM=F ISym2X=0 I1Cent= 0 IOpClX= 0 NMat=1 NMatS=1 NMatT=0.
 FoFJK:  IHMeth= 1 ICntrl=  100147 DoSepK=T KAlg= 0 I1Cent=   0 FoldK=F
 IRaf=         1 NMat=   1 IRICut=       1 DoRegI=T DoRafI=F ISym2E= 0.
 FoFCou: FMM=F IPFlag=           0 FMFlag=      100000 FMFlg1=         800
         NFxFlg=           0 DoJE=F BraDBF=F KetDBF=F FulRan=T
         wScrn=  0.000000 ICntrl=  100547 IOpCl=  0 I1Cent=           0 NGrid=           0
         NMat0=    1 NMatS0=      1 NMatT0=    0 NMatD0=    1 NMtDS0=    0 NMtDT0=    0
 Symmetry not used in FoFCou.
 Leave Link  703 at Sat Aug 28 23:54:33 2021, MaxMem= 17179869184 cpu:      1620.4
 (Enter /public3/home/sc51754/softwares/g09e01/l716.exe)
 Dipole        =-6.30367189D-01-1.01737027D+00 5.27908592D-01
 Polarizability= 0.00000000D+00 0.00000000D+00 0.00000000D+00
                 0.00000000D+00 0.00000000D+00 0.00000000D+00
 ***** Axes restored to original set *****
 -------------------------------------------------------------------
 Center     Atomic                   Forces (Hartrees/Bohr)
 Number     Number              X              Y              Z
 -------------------------------------------------------------------
      1        8          -0.030232928   -0.016277970   -0.000848975
      2        7          -0.034240635   -0.015724870    0.001066831
      3        6           0.044877614    0.056234345    0.000134916
      4        6          -0.019459993   -0.007559919    0.000062788
      5        6          -0.011192158   -0.008861726   -0.000002352
      6        6           0.003924111    0.011545220    0.000007953
      7        6           0.007175889   -0.009353487   -0.000082450
      8        1          -0.018879305    0.022248223    0.004856913
      9        1           0.001779495   -0.000959946   -0.000007309
     10        1          -0.000150741    0.000228514   -0.000029453
     11        1          -0.000438176   -0.000185362   -0.000000330
     12        1           0.000820221   -0.000426421   -0.000019105
     13        8           0.059448269   -0.035857270   -0.001515565
     14        1           0.006283067    0.005003969    0.000652011
     15        1          -0.009714731   -0.000053300   -0.004275873
 -------------------------------------------------------------------
 Cartesian Forces:  Max     0.059448269 RMS     0.018002581
 FormGI is forming the generalized inverse of G from B-inverse, IUseBI=4.
 Leave Link  716 at Sat Aug 28 23:54:34 2021, MaxMem= 17179869184 cpu:         7.6
 (Enter /public3/home/sc51754/softwares/g09e01/l103.exe)

 GradGradGradGradGradGradGradGradGradGradGradGradGradGradGradGradGradGrad
 Berny optimization.
 Red2BG is reusing G-inverse.
 Internal  Forces:  Max     0.029799169 RMS     0.008757702
 Search for a saddle point.
 Step number   1 out of a maximum of  100
 All quantities printed in internal units (Hartrees-Bohrs-Radians)
 Second derivative matrix not updated -- analytic derivatives used.
 ITU=  0
 LST/QST climbing along tangent vector
     Eigenvalues ---   -0.00365   0.00114   0.00411   0.00579   0.00964
     Eigenvalues ---    0.01237   0.01778   0.01947   0.02154   0.02422
     Eigenvalues ---    0.02890   0.03266   0.03593   0.04549   0.04758
     Eigenvalues ---    0.05578   0.07306   0.10350   0.10924   0.12099
     Eigenvalues ---    0.13176   0.15149   0.19785   0.20323   0.21364
     Eigenvalues ---    0.25675   0.27530   0.29617   0.36343   0.36525
     Eigenvalues ---    0.36991   0.37453   0.37784   0.44915   0.46144
     Eigenvalues ---    0.49936   0.52215   0.55874   0.578801000.00000
     Eigenvalues --- 1000.000001000.000001000.000001000.000001000.00000
     Eigenvalues --- 1000.000001000.000001000.000001000.000001000.00000
     Eigenvalues --- 1000.000001000.000001000.000001000.000001000.00000
     Eigenvalues --- 1000.000001000.000001000.000001000.000001000.00000
     Eigenvalues --- 1000.000001000.000001000.000001000.000001000.00000
     Eigenvalues --- 1000.000001000.000001000.000001000.000001000.00000
     Eigenvalues --- 1000.000001000.000001000.000001000.000001000.00000
     Eigenvalues --- 1000.000001000.000001000.000001000.000001000.00000
     Eigenvalues --- 1000.00000
 Eigenvectors required to have negative eigenvalues:
                          R5        R14       R17       R2        A21
   1                    0.48848   0.46722  -0.45928  -0.40817   0.24088
                          A25       A24       D33       A22       A4
   1                   -0.21946  -0.12789   0.12176   0.08739   0.06175
 QST in optimization variable space.
                        Tangent   TS vect  // Eig F  Eigenval
   1         R1        -0.05384   0.05384   0.00620  -0.00365
   2         R2         0.40817  -0.40817   0.00040   0.00114
   3         R3         0.02474  -0.02474   0.00007   0.00411
   4         R4         0.00959  -0.00959   0.00034   0.00579
   5         R5        -0.48848   0.48848  -0.00125   0.00964
   6         R6         0.01926  -0.01926  -0.00022   0.01237
   7         R7        -0.00954   0.00954   0.00001   0.01778
   8         R8         0.00001  -0.00001   0.00002   0.01947
   9         R9        -0.01035   0.01035  -0.00000   0.02154
  10         R10       -0.00134   0.00134  -0.00003   0.02422
  11         R11        0.01244  -0.01244   0.00001   0.02890
  12         R12        0.00022  -0.00022  -0.00015   0.03266
  13         R13       -0.00068   0.00068   0.00030   0.03593
  14         R14       -0.46722   0.46722  -0.00487   0.04549
  15         R15        0.01053  -0.01053   0.00072   0.04758
  16         R16       -0.00047   0.00047   0.00510   0.05578
  17         R17        0.45928  -0.45928   0.00389   0.07306
  18         A1        -0.01921   0.01921  -0.00035   0.10350
  19         A2         0.02278  -0.02278   0.00109   0.10924
  20         A3         0.03897  -0.03897  -0.00068   0.12099
  21         A4        -0.06175   0.06175   0.00080   0.13176
  22         A5         0.00127  -0.00127  -0.00860   0.15149
  23         A6         0.03121  -0.03121   0.00013   0.19785
  24         A7        -0.03248   0.03248   0.01140   0.20323
  25         A8         0.01157  -0.01157   0.00054   0.21364
  26         A9        -0.01098   0.01098   0.01698   0.25675
  27         A10       -0.00059   0.00059   0.02222   0.27530
  28         A11       -0.00863   0.00863  -0.01230   0.29617
  29         A12       -0.00098   0.00098   0.00238   0.36343
  30         A13        0.00962  -0.00962   0.00817   0.36525
  31         A14        0.00629  -0.00629  -0.00530   0.36991
  32         A15       -0.00166   0.00166  -0.00355   0.37453
  33         A16       -0.00463   0.00463   0.00617   0.37784
  34         A17        0.00047  -0.00047  -0.00533   0.44915
  35         A18       -0.00030   0.00030  -0.00244   0.46144
  36         A19       -0.00017   0.00017   0.01046   0.49936
  37         A20       -0.03891   0.03891   0.00239   0.52215
  38         A21       -0.24088   0.24088   0.00173   0.55874
  39         A22       -0.08739   0.08739   0.00571   0.57880
  40         A23        0.01153  -0.01153  -0.000001000.00000
  41         A24        0.12789  -0.12789  -0.000001000.00000
  42         A25        0.21946  -0.21946   0.000001000.00000
  43         A26        0.00590  -0.00590   0.000001000.00000
  44         D1         0.00599  -0.00599  -0.000001000.00000
  45         D2         0.00607  -0.00607   0.000001000.00000
  46         D3        -0.00755   0.00755  -0.000001000.00000
  47         D4        -0.00771   0.00771  -0.000001000.00000
  48         D5         0.00087  -0.00087   0.000001000.00000
  49         D6         0.00078  -0.00078  -0.000001000.00000
  50         D7         0.00406  -0.00406   0.000001000.00000
  51         D8         0.00396  -0.00396   0.000001000.00000
  52         D9        -0.00058   0.00058  -0.000001000.00000
  53         D10       -0.00060   0.00060   0.000001000.00000
  54         D11       -0.00514   0.00514  -0.000001000.00000
  55         D12       -0.00515   0.00515  -0.000001000.00000
  56         D13       -0.01291   0.01291   0.000001000.00000
  57         D14       -0.00864   0.00864  -0.000001000.00000
  58         D15       -0.00873   0.00873   0.000001000.00000
  59         D16       -0.00447   0.00447   0.000001000.00000
  60         D17       -0.00064   0.00064  -0.000001000.00000
  61         D18       -0.00059   0.00059  -0.000001000.00000
  62         D19       -0.00055   0.00055  -0.000001000.00000
  63         D20       -0.00050   0.00050   0.000001000.00000
  64         D21        0.00013  -0.00013  -0.000001000.00000
  65         D22        0.00010  -0.00010   0.000001000.00000
  66         D23        0.00007  -0.00007  -0.000001000.00000
  67         D24        0.00004  -0.00004   0.000001000.00000
  68         D25        0.00011  -0.00011  -0.000001000.00000
  69         D26        0.00005  -0.00005  -0.000001000.00000
  70         D27        0.00013  -0.00013   0.000001000.00000
  71         D28        0.00007  -0.00007   0.000001000.00000
  72         D29        0.00010  -0.00010  -0.000001000.00000
  73         D30        0.00016  -0.00016  -0.000001000.00000
  74         D31        0.00013  -0.00013   0.000001000.00000
  75         D32        0.00019  -0.00019  -0.000001000.00000
  76         D33       -0.12176   0.12176  -0.000001000.00000
  77         D34        0.00841  -0.00841  -0.000001000.00000
  78         D35        0.01378  -0.01378  -0.000001000.00000
  79         D36        0.05173  -0.05173  -0.000001000.00000
  80         D37        0.01189  -0.01189  -0.000001000.00000
  81         D38       -0.04473   0.04473   0.000001000.00000
 RFO step:  Lambda0=4.635505461D-03 Lambda=-6.43099987D-03.
 Linear search not attempted -- option 19 set.
 Maximum step size (   0.300) exceeded in Quadratic search.
    -- Step size scaled by   0.391
 Iteration  1 RMS(Cart)=  0.02521163 RMS(Int)=  0.00129249
 Iteration  2 RMS(Cart)=  0.00074981 RMS(Int)=  0.00047226
 Iteration  3 RMS(Cart)=  0.00000145 RMS(Int)=  0.00047226
 Iteration  4 RMS(Cart)=  0.00000000 RMS(Int)=  0.00047226
 ITry= 1 IFail=0 DXMaxC= 1.54D-01 DCOld= 1.00D+10 DXMaxT= 3.00D-01 DXLimC= 3.00D+00 Rises=F
 Variable       Old X    -DE/DX   Delta X   Delta X   Delta X     New X
                                 (Linear)    (Quad)   (Total)
    R1        2.51457  -0.02967   0.00000  -0.03615  -0.03660   2.47797
    R2        2.35460   0.01198   0.00000   0.11148   0.11176   2.46636
    R3        2.49703   0.02494   0.00000   0.01657   0.01599   2.51302
    R4        2.52096   0.00725   0.00000   0.00431   0.00431   2.52527
    R5        2.42322   0.02697   0.00000  -0.14190  -0.14187   2.28135
    R6        2.63879   0.01026   0.00000   0.01168   0.01168   2.65046
    R7        2.58495  -0.00328   0.00000  -0.00579  -0.00578   2.57916
    R8        2.04193  -0.00107   0.00000  -0.00001  -0.00001   2.04192
    R9        2.58888  -0.00793   0.00000  -0.00665  -0.00664   2.58224
   R10        2.04949  -0.00025   0.00000  -0.00078  -0.00078   2.04872
   R11        2.62945   0.00972   0.00000   0.00766   0.00768   2.63713
   R12        2.04689   0.00033   0.00000   0.00021   0.00021   2.04710
   R13        2.04222  -0.00038   0.00000  -0.00046  -0.00046   2.04176
   R14        2.07870   0.02980   0.00000  -0.10720  -0.10817   1.97053
   R15        3.04133   0.00926   0.00000  -0.00271  -0.00026   3.04107
   R16        1.80984   0.00221   0.00000   0.00002   0.00002   1.80986
   R17        2.07870   0.02623   0.00000   0.16550   0.16382   2.24252
    A1        1.81180   0.01017   0.00000   0.00062   0.00060   1.81241
    A2        2.06467   0.00768   0.00000   0.01670   0.01677   2.08144
    A3        1.85243  -0.00648   0.00000   0.00915   0.00886   1.86130
    A4        2.36608  -0.00119   0.00000  -0.02585  -0.02563   2.34045
    A5        2.07666   0.00416   0.00000  -0.00175  -0.00237   2.07429
    A6        2.06547   0.01067   0.00000   0.02414   0.02453   2.09000
    A7        2.14106  -0.01483   0.00000  -0.02239  -0.02217   2.11890
    A8        2.06112   0.00411   0.00000   0.00725   0.00716   2.06829
    A9        2.08127  -0.00381   0.00000  -0.00695  -0.00691   2.07436
   A10        2.14079  -0.00030   0.00000  -0.00030  -0.00026   2.14053
   A11        2.15485  -0.00298   0.00000  -0.00625  -0.00634   2.14852
   A12        2.02042   0.00161   0.00000   0.00002   0.00007   2.02049
   A13        2.10791   0.00137   0.00000   0.00623   0.00627   2.11418
   A14        2.08994   0.00407   0.00000   0.00494   0.00488   2.09482
   A15        2.09345  -0.00169   0.00000  -0.00153  -0.00150   2.09195
   A16        2.09980  -0.00238   0.00000  -0.00341  -0.00338   2.09642
   A17        2.05472   0.00196   0.00000  -0.00024  -0.00030   2.05441
[...]
 ! D11   D(15,2,5,7)           179.6224         -DE/DX =    0.0                 !
 ! D12   D(15,2,5,10)           -0.4835         -DE/DX =    0.0                 !
 ! D13   D(3,2,15,8)            -0.8827         -DE/DX =    0.0                 !
 ! D14   D(3,2,15,13)           -7.0074         -DE/DX =    0.0                 !
 ! D15   D(5,2,15,8)           179.2939         -DE/DX =    0.0                 !
 ! D16   D(5,2,15,13)          173.1693         -DE/DX =    0.0                 !
 ! D17   D(1,3,4,6)            179.7757         -DE/DX =    0.0                 !
 ! D18   D(1,3,4,9)             -0.0673         -DE/DX =    0.0                 !
 ! D19   D(2,3,4,6)             -0.1756         -DE/DX =    0.0                 !
 ! D20   D(2,3,4,9)            179.9814         -DE/DX =    0.0                 !
 ! D21   D(3,4,6,7)              0.0298         -DE/DX =    0.0                 !
 ! D22   D(3,4,6,11)          -179.8976         -DE/DX =    0.0                 !
 ! D23   D(9,4,6,7)            179.8656         -DE/DX =    0.0                 !
 ! D24   D(9,4,6,11)            -0.0618         -DE/DX =    0.0                 !
 ! D25   D(2,5,7,6)              0.0247         -DE/DX =    0.0                 !
 ! D26   D(2,5,7,12)           179.9299         -DE/DX =    0.0                 !
 ! D27   D(10,5,7,6)          -179.8626         -DE/DX =    0.0                 !
 ! D28   D(10,5,7,12)            0.0425         -DE/DX =    0.0                 !
 ! D29   D(4,6,7,5)              0.0459         -DE/DX =    0.0                 !
 ! D30   D(4,6,7,12)          -179.8583         -DE/DX =    0.0                 !
 ! D31   D(11,6,7,5)           179.9733         -DE/DX =    0.0                 !
 ! D32   D(11,6,7,12)            0.069          -DE/DX =    0.0                 !
 ! D33   D(1,8,13,14)         -120.6092         -DE/DX =    0.0                 !
 ! D34   D(1,8,13,15)           -7.0358         -DE/DX =    0.0                 !
 ! D35   D(1,8,15,2)             1.2665         -DE/DX =    0.0                 !
 ! D36   D(8,13,14,15)          90.9641         -DE/DX =    0.0                 !
 ! D37   D(8,13,15,2)            7.9703         -DE/DX =    0.0                 !
 ! D38   D(14,13,15,2)         119.1358         -DE/DX =    0.0                 !
 --------------------------------------------------------------------------------
 GradGradGradGradGradGradGradGradGradGradGradGradGradGradGradGradGradGrad

 Leave Link  103 at Sun Aug 29 00:01:30 2021, MaxMem= 17179869184 cpu:        53.1
 (Enter /public3/home/sc51754/softwares/g09e01/l9999.exe)
 1\1\GINC-S2614\Freq\RLC-wPBE\Gen\C5H7N1O2\SC51754\29-Aug-2021\0\\#P Ge
 om=AllCheck Guess=TCheck SCRF=Check GenChk RLC-wPBE/ChkBas Freq\\HY_H2
 O_LC-wPBE_PC2_OPT_FREQ\\0,1\O,1.2865804566,1.3885252141,-0.003449237\N
 ,0.3337514626,-0.6558384775,-0.006575138\C,0.2122940714,0.6853841139,-
 0.0010667995\C,-1.0797046935,1.2521108613,0.0060090957\C,-0.7369892961
 ,-1.458968264,-0.0104894663\C,-2.1621438936,0.427631106,0.0034053337\C
 ,-2.0045932605,-0.9661384936,-0.0055299161\H,2.1757495745,0.6067761734
 ,-0.0196533561\H,-1.1672505886,2.3289069201,0.0107011877\H,-0.53086822
 67,-2.5221245354,-0.0196297472\H,-3.1583477577,0.8536213415,0.00710493
 7\H,-2.8547912216,-1.6319657484,-0.0099610034\O,2.7362809909,-0.498720
 931,-0.0740284414\H,3.2700251222,-0.681682668,0.6997011187\H,1.5479223
 203,-0.8945843525,-0.0037153179\\Version=EM64L-G09RevE.01\State=1-A\HF
 =-399.8508742\RMSD=2.600e-09\RMSF=1.023e-05\ZeroPoint=0.1147851\Therma
 l=0.1212572\Dipole=-1.1399125,-0.7081761,0.5434836\DipoleDeriv=-1.9944
 356,-0.3714343,-0.0120895,-0.1893368,-0.9073716,0.0030059,-0.0074847,-
 0.0003026,-0.362716,-1.3744554,0.2069513,-0.0070267,-0.5125994,-0.4870
 088,-0.0005973,-0.0315505,0.0009822,-0.1754712,1.8187536,0.8390162,0.0
 04742,0.7094734,0.6632722,0.000318,-0.0062624,-0.004275,0.2466442,-0.7
 208892,-0.5434073,-0.0040318,0.095588,-0.0252412,-0.0003012,0.0076602,
 0.00022,-0.1884404,0.6308126,-0.362991,-0.0012864,0.2980534,0.223554,0
 .0070482,-0.0001909,0.0054011,0.0089416,0.2811399,0.144447,0.0005596,0
 .1057276,0.640488,0.0040106,-0.0007344,0.0033576,-0.0592759,-0.3043466
 ,0.3942372,0.0014806,0.0486702,-0.540404,-0.0017283,0.0048809,-0.00159
 1,-0.2046812,1.1500265,-0.4325129,-0.0038449,-0.9610349,0.7306596,-0.0
 2708,-0.0179403,-0.0167893,0.2154162,0.0743163,-0.0043825,-0.0000366,0
 .0082299,-0.00248,-0.0008819,0.000549,-0.0003783,0.1542012,0.0724791,0
 .0249973,-0.0003783,-0.0108755,-0.0321144,-0.000699,-0.0018626,-0.0014
 831,0.1274131,-0.0276934,0.0560314,0.0004525,0.057123,0.072524,-0.0004
 72,-0.0003079,-0.0002552,0.1248451,0.0097648,-0.0562175,-0.0005951,-0.
 0557542,0.0220439,-0.0008034,-0.0005465,-0.0010371,0.1613829,-1.833426
 8,0.2280713,0.0246001,0.3514505,-0.8195381,-0.0097791,0.0826249,-0.023
 7667,-0.4192858,0.306817,-0.0018477,-0.0249625,-0.0173148,0.28367,0.00
 86459,-0.0403971,0.0192062,0.1869654,1.911137,-0.1209586,0.0224169,0.0
 725996,0.1779463,0.0193138,0.0115622,0.0207112,0.1840609\Polar=99.6044
 166,3.4473449,81.2496027,1.1467561,-0.1470572,42.7178875\PG=C01 [X(C5H
 7N1O2)]\NImag=1\\0.47143340,0.15406140,0.36563840,-0.00230946,-0.00007
 577,0.05758393,0.03277816,-0.06042749,0.00023651,0.64255144,-0.0431571
 5,-0.06399405,-0.00031907,0.11936152,0.67616728,0.00115088,-0.00041384
 ,0.01549218,0.00049582,0.00284166,0.11146655,-0.34115692,-0.15028458,0
 .00126506,-0.19439393,0.01464812,-0.00112801,0.82910190,-0.14589656,-0
 .21368352,0.00079228,0.05514047,-0.28976832,-0.00150461,0.04666688,0.7
 0155633,0.00019722,-0.00005038,-0.07214819,0.00024443,-0.00091297,-0.0
 7937221,-0.00145935,0.00194057,0.21411370,-0.08206853,0.00423471,0.000
 20979,0.04251554,0.07814168,0.00077136,-0.23581311,0.04541039,0.000579
 25,0.70290791,-0.03127162,0.02210978,0.00017748,0.03886509,-0.02001955
 ,-0.00020490,0.10333877,-0.17115122,-0.00086050,0.05516188,0.80535241,
 0.00044145,0.00049563,0.01523791,-0.00006765,-0.00023479,0.01562891,0.
 00100710,-0.00110373,-0.08291488,-0.00115955,0.00317880,0.12687656,-0.
 01789194,0.01307074,-0.00005225,-0.28301876,-0.08266938,0.00015640,0.0
 7175674,-0.09390851,-0.00062495,-0.08357011,-0.00573766,0.00008585,0.7
 5292929,-0.00199909,0.00115472,-0.00009158,-0.12660906,-0.22073724,-0.
 00052769,-0.02006190,-0.06227593,-0.00022859,-0.01534136,-0.00213280,0
 .00003512,-0.05167025,0.79409423,-0.00004973,0.00002429,0.00873867,-0.
 00058142,-0.00099678,-0.06099602,-0.00018057,-0.00012847,-0.00145308,-
 0.00000611,0.00009134,-0.00449778,-0.00094442,0.00462262,0.16271616,0.
 00716826,0.00471158,0.00005388,-0.01417216,-0.02068398,-0.00028758,-0.
 05708742,-0.00095615,0.00016016,-0.32396578,-0.17322592,-0.00042859,0.
 02510265,0.04048405,0.00028101,0.79264384,0.02946419,-0.00560869,0.000
 00334,-0.04876338,-0.07025207,-0.00050511,-0.05951313,0.07947666,0.000
 63279,-0.09861424,-0.24747252,-0.00073056,0.10459888,-0.00681636,-0.00
 026203,0.00638671,0.69321060,0.00014318,-0.00006608,0.00462473,-0.0002
 1050,-0.00034568,-0.00793634,-0.00023865,0.00050828,0.00180994,-0.0001
 2985,-0.00072666,-0.06144280,0.00060049,-0.00013958,0.00916910,-0.0009
 5220,0.00312393,0.15505410,0.00865421,-0.00736196,0.00001604,-0.083059
 38,-0.05749344,-0.00039273,-0.03731572,0.05433066,0.00032393,0.0559105
 2,-0.02388058,-0.00020240,-0.36515858,0.13596586,0.00120344,-0.1366555
 4,-0.01900187,-0.00005238,0.79720157,-0.02221997,0.00057689,-0.0000376
 4,0.01348986,0.06597017,0.00053025,0.04973374,-0.04601333,-0.00038976,
 -0.07381226,-0.03485302,-0.00013590,0.05629732,-0.18261287,-0.00087480
 ,0.05821337,-0.31560562,-0.00163169,0.03931591,0.69773360,-0.00014425,
 0.00009577,-0.00068923,0.00006292,0.00035623,0.01838218,0.00035867,-0.
 00037532,-0.00961477,-0.00047563,-0.00027453,0.00904863,0.00060851,-0.
 00084903,-0.07213975,0.00040779,-0.00164480,-0.06740654,-0.00025197,0.
 00387950,0.12787754,-0.00530488,-0.00477726,-0.00146561,-0.01775609,0.
 01505082,-0.00103669,-0.06719689,-0.02253909,0.00048345,0.01318654,0.0
 0211596,0.00011913,0.00296553,0.00270414,-0.00001686,-0.00259896,-0.00
 684259,-0.00002021,-0.00206620,0.00556541,0.00012613,0.07137861,-0.035
 49721,-0.05424317,0.00076129,0.02046264,-0.01441120,0.00118469,0.02727
 872,0.05216660,0.00011399,-0.01997704,-0.00674103,-0.00008351,-0.00597
 513,-0.00528414,-0.00008275,0.00270427,0.01089650,0.00002184,0.0046511
 2,-0.00790154,-0.00012154,0.05660468,0.04682097,0.00138146,-0.00155648
 ,-0.03663234,-0.00099452,-0.00005790,-0.00186202,-0.00039930,-0.000120
 63,0.00185891,0.00009277,-0.00004760,0.00369954,0.00002983,0.00009639,
 -0.00078825,-0.00007114,-0.00009478,0.00077195,-0.00010851,0.00005733,
 0.00032099,0.00550084,0.00487249,0.06898255,0.00238356,-0.00227593,-0.
 00003199,-0.00634816,0.00435153,0.00001273,0.00443274,0.02968903,0.000
 11109,-0.06171120,0.02648605,0.00021627,-0.00213991,-0.00109007,-0.000
 00427,0.00763368,-0.02648053,-0.00012219,-0.00344057,-0.00282225,0.000
 00909,-0.00077740,0.00092680,-0.00001343,0.05728091,-0.00041498,0.0014
 0873,0.00002027,0.00262010,-0.00056412,-0.00001919,-0.00388189,-0.0087
 7239,-0.00001519,0.02877848,-0.35437446,-0.00143721,0.00058396,0.00098
 367,0.00001041,0.00383992,-0.01152487,-0.00006275,-0.00324328,0.000732
 62,-0.00002577,0.00044830,-0.00041235,0.00000540,-0.02808301,0.3721666
 6,-0.00000892,-0.00000485,-0.00251471,0.00004157,-0.00007169,0.0050931
 6,-0.00006436,-0.00008621,0.00316615,0.00024436,-0.00131529,-0.0356316
 1,0.00003825,0.00002006,-0.00048249,-0.00001465,-0.00007872,0.00305648
 ,-0.00001502,-0.00003912,0.00925196,-0.00001724,0.00001400,-0.00033842
 ,-0.00019313,0.00152979,0.02504950,-0.00090510,-0.00139523,0.00000051,
 0.00561318,-0.03357642,-0.00024790,-0.00298041,-0.00182746,0.00000457,
 -0.00069786,-0.00064780,-0.00000103,-0.07446437,0.06387378,0.00050597,
 -0.00552675,0.00198194,0.00002474,0.00238517,0.02766505,0.00022780,0.0
 0080907,-0.00079794,0.00000565,0.00012992,0.00000596,-0.00000358,0.074
 46899,-0.00048410,-0.00133207,0.00000783,-0.00182310,-0.01992190,-0.00
 018962,-0.00268064,0.00243198,-0.00009678,0.00026838,0.00051258,0.0000
 0954,0.05953090,-0.33488771,-0.00242099,0.00194238,0.00032391,-0.00007
 332,-0.00115645,-0.00456857,-0.00011761,0.00041279,-0.00033020,-0.0000
 0390,0.00006766,-0.00007026,0.00001085,-0.05667044,0.35750749,0.000011
 26,-0.00002753,-0.00008840,0.00010022,0.00003549,0.00095760,0.00001195
 ,-0.00004221,0.00816988,-0.00000590,0.00001075,-0.00047669,0.00041145,
 -0.00267724,-0.04470737,0.00000535,-0.00002144,0.00816057,0.00003947,-
 0.00010447,0.00855425,-0.00004357,0.00003280,-0.00010617,-0.00000611,0
 .00000528,-0.00134205,-0.00046206,0.00279382,0.02786668,-0.00167499,0.
 00068118,0.00001216,0.00011793,-0.00082007,-0.00000328,-0.00169753,-0.
 00339611,-0.00000897,-0.01727067,0.01230800,0.00008352,0.00170025,0.00
 046500,0.00000248,-0.30362374,0.10351380,0.00092388,0.00141029,-0.0010
 5893,-0.00001272,0.00032835,-0.00059198,-0.00000902,0.00105118,-0.0002
 2862,-0.00000717,-0.00004682,-0.00009377,-0.00000031,0.31926511,-0.000
 72670,0.00073392,0.00001749,-0.00115443,-0.00034299,0.00000201,-0.0037
 5251,-0.00220368,-0.00006506,-0.01861047,0.01215634,0.00004887,0.00067
 294,-0.00644365,-0.00007906,0.10455268,-0.10624144,-0.00047797,0.02916
 749,-0.00521771,-0.00009505,0.00002853,-0.00025022,-0.00000102,0.00050
 887,0.00074555,0.00003182,0.00142624,-0.00035226,0.00000396,-0.1114555
 2,0.10615727,-0.00002671,-0.00003934,-0.00129668,0.00000817,0.00000198
 ,-0.00196926,0.00001023,-0.00002800,0.01145298,-0.00003771,0.00005572,
 0.00739420,0.00002144,-0.00009790,0.00628755,0.00086390,-0.00048193,-0
 .04647296,0.00017890,-0.00006029,0.00595650,-0.00002313,0.00001754,-0.
 00040364,-0.00001332,0.00001886,-0.00559871,0.00000656,0.00000172,-0.0
 0062832,-0.00099545,0.00058325,0.02867306,0.00056192,-0.00021513,0.000
 00444,-0.00548463,0.00314502,0.00002540,-0.00047493,0.00128638,-0.0000
 0374,0.00102105,0.00161718,0.00000875,-0.01559868,-0.02135749,-0.00017
 409,0.00841556,0.00535972,0.00002637,-0.24419978,-0.14327364,-0.000903
 36,-0.00019232,0.00045070,-0.00001626,0.00026206,0.00026620,-0.0000009
 0,0.00066273,0.00029273,0.00000425,0.00055449,-0.00059081,-0.00000075,
 0.25392650,-0.00042307,0.00046531,0.00000677,0.00390628,0.00036914,-0.
 00006397,0.00136484,-0.00138812,-0.00000883,0.00202135,-0.00489011,-0.
 00006751,0.01119983,0.01154804,0.00007955,-0.02576430,-0.01231674,-0.0
 0009223,-0.14496144,-0.17169591,-0.00092950,0.00020228,-0.00033586,0.0
 0000488,-0.00114323,-0.00051758,-0.00000148,-0.00054542,0.00053145,0.0
 0003728,0.00035332,0.00109722,0.00003084,0.15395351,0.17658616,-0.0000
 1290,-0.00002462,-0.00087507,0.00002682,-0.00006936,0.00863019,0.00001
 304,0.00001280,-0.00016002,0.00001116,-0.00006063,0.00542814,0.0001056
 6,0.00008623,0.00022313,-0.00016166,-0.00005044,0.00106655,-0.00097109
 ,-0.00099468,-0.03276565,0.00001064,-0.00000956,0.00000946,-0.00001039
 ,-0.00000375,0.00041965,-0.00001090,0.00005035,-0.00459232,0.00000184,
 0.00002721,-0.00308160,0.00100138,0.00101389,0.02506416,-0.02400517,0.
 04440229,0.00131291,-0.09552138,-0.00894132,-0.00216441,-0.00249462,-0
 .00618446,0.00044293,0.00048894,0.00137847,0.00015659,-0.00028636,0.01
 525644,-0.00001227,-0.00086801,-0.00238171,-0.00006806,-0.00628015,-0.
 00059840,0.00023076,-0.02878842,0.00543287,-0.00220794,-0.00055824,0.0
 0030362,0.00000391,-0.00032373,-0.00107326,-0.00010208,-0.00027053,0.0
 0002037,-0.00001376,-0.00126424,0.00041110,0.00002946,0.33384346,0.098
 21272,-0.04853020,0.00273342,-0.03081919,0.02193020,-0.00369506,-0.034
 53381,-0.03448763,0.00011503,0.01304376,0.00567984,-0.00026391,0.00560
 369,0.00481703,-0.00005511,-0.00198795,-0.00768074,-0.00006265,-0.0038
 9908,0.00553754,0.00025373,-0.04364966,-0.00773280,-0.02244700,-0.0011
 2213,0.00050640,-0.00001208,0.00069783,-0.00000590,-0.00008759,0.00032
 084,0.00016446,0.00003938,-0.00040287,0.00028563,0.00004643,-0.0844335
 7,0.13931953,-0.00286226,0.00453222,0.01636340,-0.00560534,-0.00087073
 ,0.01675431,0.00080796,-0.00049890,-0.00081381,-0.00002977,0.00003961,
 -0.00184728,-0.00053454,0.00029694,0.00078975,0.00005005,-0.00003363,0
 .00012398,-0.00006085,-0.00015833,-0.00113780,-0.00344901,-0.00872485,
 -0.04020990,0.00002809,-0.00000881,0.00012738,0.00000029,-0.00005580,0
 .00045943,0.00000803,0.00000786,0.00021082,-0.00004860,0.00000610,-0.0
 0019602,0.23787305,-0.08144961,0.41064050,0.00137280,0.00176845,0.0015
 4561,-0.00722854,-0.00175748,0.00381239,-0.00085233,-0.00120185,-0.000
 66786,0.00030688,0.00015129,-0.00040933,-0.00090536,0.00081840,0.00008
 369,-0.00000752,-0.00019717,0.00004649,-0.00019949,-0.00020653,-0.0002
 7823,-0.00470958,-0.00084778,-0.00538647,0.00000853,0.00002498,0.00000
 537,-0.00006836,-0.00011087,0.00010572,0.00001762,-0.00000041,0.000048
 75,-0.00007731,0.00003511,-0.00003283,-0.17942250,0.05201212,-0.231983
 05,0.18875579,0.00660875,-0.00690891,-0.00397654,-0.00608055,0.0007714
 2,0.00204804,-0.00139390,-0.00171067,-0.00004498,0.00038006,0.00020209
 ,0.00029683,0.00011398,0.00100041,0.00000038,-0.00003190,-0.00020285,0
 .00001725,-0.00038439,-0.00003046,-0.00008649,0.00282867,0.00954570,0.
 01828957,-0.00006030,0.00003852,0.00000159,-0.00007584,-0.00012407,0.0
 0000498,0.00000997,0.00000135,-0.00004475,-0.00008152,0.00002733,-0.00
 001863,0.05012853,-0.04604068,0.07851496,-0.05818401,0.04145034,0.0033
 0833,-0.00340864,-0.00016006,0.00492590,0.00033082,-0.00021123,-0.0004
 8525,-0.00007997,0.00005112,0.00009913,0.00000045,0.00000213,0.0002829
 7,-0.00042814,0.00002081,0.00002969,0.00001686,-0.00001145,0.00021065,
 0.00010470,0.00000494,-0.00136598,0.00374088,0.00023146,0.00001113,0.0
 0000049,0.00001041,-0.00001545,0.00005143,0.00001807,0.00001116,-0.000
 00403,0.00000624,0.00005970,-0.00000844,0.00000764,-0.25036105,0.08748
 178,-0.36246613,0.24815558,-0.08573393,0.36155987,-0.05134478,0.003807
 24,-0.00079760,-0.01659321,0.01440056,-0.00116439,0.03617243,0.0433863
 9,0.00021785,-0.01124012,-0.00665910,0.00014989,-0.01142038,-0.0214384
 6,-0.00010684,0.00354190,0.01048940,0.00002888,0.01281366,-0.00628867,
 0.00003447,0.04072264,-0.05482473,0.00219606,0.00179290,-0.00101973,-0
 .00000850,0.00094432,0.00157780,-0.00006966,0.00013907,-0.00008628,-0.
 00002713,0.00188757,-0.00061016,-0.00000023,0.00575093,0.03095729,0.00
 580595,0.00300938,0.00622246,-0.00486653,-0.01617631,-0.00625659,0.002
 21285,-0.00001958,0.02183123,-0.06519678,0.00051734,0.03307129,-0.0041
 7678,-0.00012932,-0.00108531,-0.00437834,-0.00000768,-0.01171131,0.007
 59260,0.00007141,-0.00018476,-0.00018578,0.00000730,-0.00204854,-0.002
 05181,-0.00006560,-0.00815300,-0.02178726,0.00100325,0.00104751,-0.000
 34612,0.00000134,-0.00011425,0.00028553,0.00003611,-0.00000712,-0.0000
 0417,0.00000292,-0.00044998,0.00023403,-0.00000525,-0.01372095,-0.0337
 6268,0.00840297,0.00769577,0.00198048,-0.00206426,-0.01991398,0.119584
 24,-0.00121955,0.00051961,-0.00363612,0.00131706,0.00031278,-0.0400580
 0,0.00048148,0.00071413,0.00585430,-0.00016329,-0.00006403,0.00349503,
 -0.00018470,-0.00011762,-0.00288042,0.00006401,0.00012652,-0.00056728,
 0.00008250,-0.00014510,0.00435675,0.00119810,-0.00173731,0.00446589,0.
 00000643,-0.00001782,-0.00026670,-0.00003518,0.00003248,-0.00224515,-0
 .00000617,-0.00000030,-0.00053017,0.00001740,-0.00000735,0.00082176,0.
 01487996,0.01740325,-0.03879864,-0.01504583,-0.00926828,0.00093617,-0.
 00139222,-0.00775096,0.06905259\\0.00003607,0.00001075,0.00001294,0.00
 000205,-0.00001017,0.00001232,-0.00001951,-0.00001684,-0.00000290,0.00
 000100,0.00000075,-0.00000228,0.00000048,-0.00000078,-0.00000409,0.000
 00072,0.00000306,0.00000059,-0.00000212,0.00000280,-0.00000106,-0.0000
 1607,0.00002159,-0.00001386,0.00000361,0.00000174,0.00000040,-0.000003
 33,0.00000087,0.00000098,0.00000117,0.00000404,0.00000052,-0.00000215,
 0.00000375,0.00000013,0.00001389,-0.00002467,-0.00000913,-0.00001109,-
 0.00000551,0.00000501,-0.00000472,0.00000862,0.00000044\\\@


 "THE ACADEMIC HIERARCHY"


 THE PRESIDENT:
   LEAPS TALL BUILDINGS IN A SINGLE BOUND,
     IS MORE POWERFUL THAN A LOCOMOTIVE,
       IS FASTER THAN A SPEEDING BULLET,
         WALKS ON WATER,
           GIVES POLICY TO GOD.

 THE VICE PRESIDENT FOR ACADEMIC AFFAIRS:
   LEAPS SHORT BUILDINGS IN A SINGLE BOUND,
     IS MORE POWERFUL THAN A SWITCH ENGINE,
       IS JUST AS FAST AS A SPEEDING BULLET,
         WALKS ON WATER IF SEA IS CALM,
           TALKS WITH GOD.

 PROFESSOR:
   LEAPS SHORT BUILDINGS WITH A RUNNING START AND FAVORABLE WINDS,
     IS ALMOST AS POWERFUL AS A SWITCH ENGINE,
       CAN FIRE A SPEEDING BULLET,
         WALKS ON WATER IN AN INDOOR SWIMMING POOL,
          TALKS WITH GOD IF SPECIAL REQUEST IS APPROVED.

 ASSOCIATE PROFESSOR:
   BARELY CLEARS A QUONSET HUT,
     LOSES TUG OF WAR WITH LOCOMOTIVE,
       MISFIRES FREQUENTLY,
         SWIMS WELL,
           IS OCCASIONALLY ADDRESSED BY GOD.

 ASSISTANT PROFESSOR:
   MAKES HIGH MARKS ON WALLS WHEN TRYING TO LEAP TALL BUILDINGS,
     IS RUN OVER BY LOCOMOTIVES,
       CAN SOMETIMES HANDLE A GUN WITHOUT INFLICTING SELF INJURY,
         DOG PADDLES,
           TALKS TO ANIMALS.

 GRADUATE STUDENT:
   RUNS INTO BUILDINGS,
     RECOGNIZES LOCOMOTIVES TWO OUT OF THREE TIMES,
       IS NOT ISSUED AMMUNITION,
         CAN STAY AFLOAT WITH A LIFE JACKET,
           TALKS TO WALLS.

 UNDERGRADUATE AND WORK STUDY STUDENT:
   FALLS OVER DOORSTEP WHEN TRYING TO ENTER BUILDINGS,
     SAYS, "LOOK AT THE CHOO-CHOO,"
       WETS HIMSELF WITH A WATER PISTOL,
        PLAYS IN MUD PUDDLES,
          MUMBLES TO HIMSELF.

 DEPARTMENT SECRETARY:
   LIFTS TALL BUILDINGS AND WALKS UNDER THEM,
     KICKS LOCOMOTIVES OFF THE TRACKS,
       CATCHES SPEEDING BULLETS IN HER TEETH AND EATS THEM,
         FREEZES WATER WITH A SINGLE GLANCE,
           IS GOD.
 Job cpu time:       0 days  1 hours 22 minutes 41.6 seconds.
 File lengths (MBytes):  RWF=    137 Int=      0 D2E=      0 Chk=      9 Scr=      1
 Normal termination of Gaussian 09 at Sun Aug 29 00:01:30 2021.
