 Entering Gaussian System, Link 0=g09
 AtFile(1): pc-2.gbs
            -H     0
            S    4   1.00
                  0.754230D+02           0.240650D-02
                  0.113500D+02           0.184870D-01
                  0.259930D+01           0.897420D-01
                  0.735130D+00           0.281110D+00
            S    1   1.00
                  0.231670D+00           0.100000D+01
            S    1   1.00
                  0.741470D-01           0.100000D+01
            P    1   1.00
                  0.160000D+01           0.100000D+01
            P    1   1.00
                  0.450000D+00           0.100000D+01
            D    1   1.00
                  0.125000D+01           0.100000D+01
            ****
            -C     0
            S    7   1.00
                  0.785710D+04           0.568250D-03
                  0.117870D+04           0.439150D-02
                  0.268320D+03           0.225040D-01
                  0.759480D+02           0.866530D-01
                  0.245590D+02           0.244050D+00
                  0.862120D+01           0.441480D+00
                  0.312780D+01           0.353320D+00
            S    7   1.00
                  0.117870D+04          -0.594920D-06
                  0.268320D+03          -0.627480D-04
                  0.759480D+02          -0.757730D-03
                  0.245590D+02          -0.733080D-02
                  0.862120D+01          -0.389320D-01
                  0.312780D+01          -0.889080D-01
                  0.822020D+00           0.216890D+00
            S    1   1.00
                  0.330170D+00           0.100000D+01
            S    1   1.00
                  0.114630D+00           0.100000D+01
            P    4   1.00
                  0.337750D+02           0.602940D-02
                  0.767660D+01           0.432280D-01
                  0.223570D+01           0.163010D+00
                  0.764470D+00           0.365040D+00
            P    1   1.00
                  0.262320D+00           0.100000D+01
            P    1   1.00
                  0.846380D-01           0.100000D+01
            D    1   1.00
                  0.140000D+01           0.100000D+01
            D    1   1.00
                  0.450000D+00           0.100000D+01
            F    1   1.00
                  0.950000D+00           0.100000D+01
            ****
            -N     0
            S    7   1.00
                  0.111010D+05           0.545700D-03
                  0.166530D+04           0.421810D-02
                  0.379080D+03           0.216450D-01
                  0.107300D+03           0.837760D-01
                  0.347470D+02           0.238810D+00
                  0.122490D+02           0.439940D+00
                  0.447430D+01           0.363640D+00
            S    7   1.00
                  0.166530D+04          -0.150060D-05
                  0.379080D+03          -0.587530D-04
                  0.107300D+03          -0.774530D-03
                  0.347470D+02          -0.721610D-02
                  0.122490D+02          -0.393380D-01
                  0.447430D+01          -0.906110D-01
                  0.124040D+01           0.198820D+00
            S    1   1.00
                  0.487430D+00           0.100000D+01
            S    1   1.00
                  0.164840D+00           0.100000D+01
            P    4   1.00
                  0.479340D+02           0.617060D-02
                  0.109990D+02           0.442600D-01
                  0.324720D+01           0.168250D+00
                  0.111140D+01           0.368480D+00
            P    1   1.00
                  0.379880D+00           0.100000D+01
            P    1   1.00
                  0.120680D+00           0.100000D+01
            D    1   1.00
                  0.180000D+01           0.100000D+01
            D    1   1.00
                  0.550000D+00           0.100000D+01
            F    1   1.00
                  0.102000D+01           0.100000D+01
            ****
            -O     0
            S    7   1.00
                  0.147820D+05           0.535190D-03
                  0.221730D+04           0.413750D-02
                  0.504740D+03           0.212450D-01
                  0.142870D+03           0.824530D-01
                  0.463000D+02           0.236710D+00
                  0.163370D+02           0.440390D+00
                  0.598280D+01           0.364650D+00
            S    7   1.00
                  0.221730D+04          -0.192750D-05
                  0.504740D+03          -0.579640D-04
                  0.142870D+03          -0.794940D-03
                  0.463000D+02          -0.731250D-02
                  0.163370D+02          -0.405740D-01
                  0.598280D+01          -0.915940D-01
                  0.167180D+01           0.209400D+00
            S    1   1.00
                  0.646620D+00           0.100000D+01
            S    1   1.00
                  0.216690D+00           0.100000D+01
            P    4   1.00
                  0.604240D+02           0.689490D-02
                  0.139350D+02           0.490050D-01
                  0.415310D+01           0.182550D+00
                  0.141580D+01           0.376330D+00
            P    1   1.00
                  0.475490D+00           0.100000D+01
            P    1   1.00
                  0.145290D+00           0.100000D+01
            D    1   1.00
                  0.220000D+01           0.100000D+01
            D    1   1.00
                  0.650000D+00           0.100000D+01
            F    1   1.00
                  0.110000D+01           0.100000D+01
            ****
 Initial command:
 /public3/home/sc51754/softwares/g09e01/l1.exe "./Gau-5151.inp" -scrdir="./"
 Entering Link 1 = /public3/home/sc51754/softwares/g09e01/l1.exe PID=      5152.
  
 Copyright (c) 1988,1990,1992,1993,1995,1998,2003,2009,2015,
            Gaussian, Inc.  All Rights Reserved.
  
 This is part of the Gaussian(R) 09 program.  It is based on
 the Gaussian(R) 03 system (copyright 2003, Gaussian, Inc.),
 the Gaussian(R) 98 system (copyright 1998, Gaussian, Inc.),
 the Gaussian(R) 94 system (copyright 1995, Gaussian, Inc.),
 the Gaussian 92(TM) system (copyright 1992, Gaussian, Inc.),
 the Gaussian 90(TM) system (copyright 1990, Gaussian, Inc.),
 the Gaussian 88(TM) system (copyright 1988, Gaussian, Inc.),
 the Gaussian 86(TM) system (copyright 1986, Carnegie Mellon
 University), and the Gaussian 82(TM) system (copyright 1983,
 Carnegie Mellon University). Gaussian is a federally registered
 trademark of Gaussian, Inc.
  
 This software contains proprietary and confidential information,
 including trade secrets, belonging to Gaussian, Inc.
  
 This software is provided under written license and may be
 used, copied, transmitted, or stored only in accord with that
 written license.
  
 The following legend is applicable only to US Government
 contracts under FAR:
  
                    RESTRICTED RIGHTS LEGEND
  
 Use, reproduction and disclosure by the US Government is
 subject to restrictions as set forth in subparagraphs (a)
 and (c) of the Commercial Computer Software - Restricted
 Rights clause in FAR 52.227-19.
  
 Gaussian, Inc.
 340 Quinnipiac St., Bldg. 40, Wallingford CT 06492
  
  
 ---------------------------------------------------------------
 Warning -- This program may not be used in any manner that
 competes with the business of Gaussian, Inc. or will provide
 assistance to any competitor of Gaussian, Inc.  The licensee
 of this program is prohibited from giving any competitor of
 Gaussian, Inc. access to this program.  By using this program,
 the user acknowledges that Gaussian, Inc. is engaged in the
 business of creating and licensing software in the field of
 computational chemistry and represents and warrants to the
 licensee that it is not a competitor of Gaussian, Inc. and that
 it will not use this program in any manner prohibited above.
 ---------------------------------------------------------------
  

 Cite this work as:
 Gaussian 09, Revision E.01,
 M. J. Frisch, G. W. Trucks, H. B. Schlegel, G. E. Scuseria, 
 M. A. Robb, J. R. Cheeseman, G. Scalmani, V. Barone, B. Mennucci, 
 G. A. Petersson, H. Nakatsuji, M. Caricato, X. Li, H. P. Hratchian, 
 A. F. Izmaylov, J. Bloino, G. Zheng, J. L. Sonnenberg, M. Hada, 
 M. Ehara, K. Toyota, R. Fukuda, J. Hasegawa, M. Ishida, T. Nakajima, 
 Y. Honda, O. Kitao, H. Nakai, T. Vreven, J. A. Montgomery, Jr., 
 J. E. Peralta, F. Ogliaro, M. Bearpark, J. J. Heyd, E. Brothers, 
 K. N. Kudin, V. N. Staroverov, T. Keith, R. Kobayashi, J. Normand, 
 K. Raghavachari, A. Rendell, J. C. Burant, S. S. Iyengar, J. Tomasi, 
 M. Cossi, N. Rega, J. M. Millam, M. Klene, J. E. Knox, J. B. Cross, 
 V. Bakken, C. Adamo, J. Jaramillo, R. Gomperts, R. E. Stratmann, 
 O. Yazyev, A. J. Austin, R. Cammi, C. Pomelli, J. W. Ochterski, 
 R. L. Martin, K. Morokuma, V. G. Zakrzewski, G. A. Voth, 
 P. Salvador, J. J. Dannenberg, S. Dapprich, A. D. Daniels, 
 O. Farkas, J. B. Foresman, J. V. Ortiz, J. Cioslowski, 
 and D. J. Fox, Gaussian, Inc., Wallingford CT, 2013.
 
 ******************************************
 Gaussian 09:  EM64L-G09RevE.01 30-Nov-2015
                27-Aug-2021 
 ******************************************
 %nprocshared=64
 Will use up to   64 processors via shared memory.
 %mem=128GB
 %chk=PY_H2O_M06L_PC2_OPT_FREQ.chk
 --------------------
 #p opt freq M06L/gen
 --------------------
 1/14=-1,18=20,19=15,26=3,38=1/1,3;
 2/9=110,12=2,17=6,18=5,40=1/2;
 3/5=7,11=2,16=1,25=1,30=1,71=1,74=-53/1,2,3;
 4//1;
 5/5=2,38=5/2;
 6/7=2,8=2,9=2,10=2,28=1/1;
 7//1,2,3,16;
 1/14=-1,18=20,19=15,26=3/3(2);
 2/9=110/2;
 99//99;
 2/9=110/2;
 3/5=7,6=1,11=2,16=1,25=1,30=1,71=1,74=-53,82=7/1,2,3;
 4/5=5,16=3,69=1/1;
 5/5=2,38=5/2;
 7//1,2,3,16;
 1/14=-1,18=20,19=15,26=3/3(-5);
 2/9=110/2;
 6/7=2,8=2,9=2,10=2,19=2,28=1/1;
 99/9=1/99;
 Leave Link    1 at Fri Aug 27 00:28:08 2021, MaxMem= 17179869184 cpu:         5.6
 (Enter /public3/home/sc51754/softwares/g09e01/l101.exe)
 ------------------------
 PY_H2O_M06L_PC2_OPT_FREQ
 ------------------------
 Symbolic Z-matrix:
 Charge =  0 Multiplicity = 1
 O                     1.26148   1.38785   0.00541 
 N                     0.24943  -0.65888   0.01158 
 C                     0.21021   0.736     0.00592 
 C                    -1.11959   1.28763   0.00047 
 C                    -0.84358  -1.46082   0.0067 
 C                    -2.21816   0.48191  -0.00352 
 C                    -2.09559  -0.93059  -0.00106 
 H                     2.7014    0.27314  -0.04162 
 H                    -1.19683   2.36437  -0.00254 
 H                    -0.64999  -2.52343   0.00862 
 H                    -3.20534   0.92605  -0.00928 
 H                    -2.96087  -1.57362  -0.00584 
 O                     3.10667  -0.61979  -0.08598 
 H                     3.83344  -0.62425   0.54074 
 H                     1.18728  -1.05929   0.02234 
 
 Add virtual bond connecting atoms H8         and O1         Dist= 3.44D+00.
 Add virtual bond connecting atoms O13        and H15        Dist= 3.73D+00.
 NAtoms=     15 NQM=       15 NQMF=       0 NMMI=      0 NMMIF=      0
                NMic=       0 NMicF=      0.
                    Isotopes and Nuclear Properties:
 (Nuclear quadrupole moments (NQMom) in fm**2, nuclear magnetic moments (NMagM)
  in nuclear magnetons)

  Atom         1           2           3           4           5           6           7           8           9          10
 IAtWgt=          16          14          12          12          12          12          12           1           1           1
 AtmWgt=  15.9949146  14.0030740  12.0000000  12.0000000  12.0000000  12.0000000  12.0000000   1.0078250   1.0078250   1.0078250
 NucSpn=           0           2           0           0           0           0           0           1           1           1
 AtZEff=   0.0000000   0.0000000   0.0000000   0.0000000   0.0000000   0.0000000   0.0000000   0.0000000   0.0000000   0.0000000
 NQMom=    0.0000000   2.0440000   0.0000000   0.0000000   0.0000000   0.0000000   0.0000000   0.0000000   0.0000000   0.0000000
 NMagM=    0.0000000   0.4037610   0.0000000   0.0000000   0.0000000   0.0000000   0.0000000   2.7928460   2.7928460   2.7928460
 AtZNuc=   8.0000000   7.0000000   6.0000000   6.0000000   6.0000000   6.0000000   6.0000000   1.0000000   1.0000000   1.0000000

  Atom        11          12          13          14          15
 IAtWgt=           1           1          16           1           1
 AtmWgt=   1.0078250   1.0078250  15.9949146   1.0078250   1.0078250
 NucSpn=           1           1           0           1           1
 AtZEff=   0.0000000   0.0000000   0.0000000   0.0000000   0.0000000
 NQMom=    0.0000000   0.0000000   0.0000000   0.0000000   0.0000000
 NMagM=    2.7928460   2.7928460   0.0000000   2.7928460   2.7928460
 AtZNuc=   1.0000000   1.0000000   8.0000000   1.0000000   1.0000000
 Leave Link  101 at Fri Aug 27 00:28:08 2021, MaxMem= 17179869184 cpu:         9.1
 (Enter /public3/home/sc51754/softwares/g09e01/l103.exe)

 GradGradGradGradGradGradGradGradGradGradGradGradGradGradGradGradGradGrad
 Berny optimization.
 Initialization pass.
                           ----------------------------
                           !    Initial Parameters    !
                           ! (Angstroms and Degrees)  !
 --------------------------                            --------------------------
 ! Name  Definition              Value          Derivative Info.                !
 --------------------------------------------------------------------------------
 ! R1    R(1,3)                  1.237          estimate D2E/DX2                !
 ! R2    R(1,8)                  1.8216         estimate D2E/DX2                !
 ! R3    R(2,3)                  1.3954         estimate D2E/DX2                !
 ! R4    R(2,5)                  1.3556         estimate D2E/DX2                !
 ! R5    R(2,15)                 1.0198         estimate D2E/DX2                !
 ! R6    R(3,4)                  1.4397         estimate D2E/DX2                !
 ! R7    R(4,6)                  1.3624         estimate D2E/DX2                !
 ! R8    R(4,9)                  1.0795         estimate D2E/DX2                !
 ! R9    R(5,7)                  1.3597         estimate D2E/DX2                !
 ! R10   R(5,10)                 1.0801         estimate D2E/DX2                !
 ! R11   R(6,7)                  1.4178         estimate D2E/DX2                !
 ! R12   R(6,11)                 1.0825         estimate D2E/DX2                !
 ! R13   R(7,12)                 1.0781         estimate D2E/DX2                !
 ! R14   R(8,13)                 0.9816         estimate D2E/DX2                !
 ! R15   R(13,14)                0.9597         estimate D2E/DX2                !
 ! R16   R(13,15)                1.972          estimate D2E/DX2                !
 ! A1    A(3,1,8)              110.4468         estimate D2E/DX2                !
 ! A2    A(3,2,5)              124.6558         estimate D2E/DX2                !
 ! A3    A(3,2,15)             114.7312         estimate D2E/DX2                !
 ! A4    A(5,2,15)             120.6129         estimate D2E/DX2                !
 ! A5    A(1,3,2)              120.1911         estimate D2E/DX2                !
 ! A6    A(1,3,4)              125.6683         estimate D2E/DX2                !
 ! A7    A(2,3,4)              114.1406         estimate D2E/DX2                !
 ! A8    A(3,4,6)              121.2133         estimate D2E/DX2                !
 ! A9    A(3,4,9)              116.6328         estimate D2E/DX2                !
 ! A10   A(6,4,9)              122.1537         estimate D2E/DX2                !
 ! A11   A(2,5,7)              120.7801         estimate D2E/DX2                !
 ! A12   A(2,5,10)             115.9423         estimate D2E/DX2                !
 ! A13   A(7,5,10)             123.2776         estimate D2E/DX2                !
 ! A14   A(4,6,7)              121.2972         estimate D2E/DX2                !
 ! A15   A(4,6,11)             119.5197         estimate D2E/DX2                !
 ! A16   A(7,6,11)             119.1831         estimate D2E/DX2                !
 ! A17   A(5,7,6)              117.9124         estimate D2E/DX2                !
 ! A18   A(5,7,12)             120.4308         estimate D2E/DX2                !
 ! A19   A(6,7,12)             121.6568         estimate D2E/DX2                !
 ! A20   A(1,8,13)             152.1528         estimate D2E/DX2                !
 ! A21   A(8,13,14)            106.7015         estimate D2E/DX2                !
 ! A22   A(8,13,15)             78.3702         estimate D2E/DX2                !
 ! A23   A(14,13,15)           134.4412         estimate D2E/DX2                !
 ! A24   A(2,15,13)            143.8035         estimate D2E/DX2                !
 ! D1    D(8,1,3,2)              1.8252         estimate D2E/DX2                !
 ! D2    D(8,1,3,4)           -178.1461         estimate D2E/DX2                !
 ! D3    D(3,1,8,13)             2.218          estimate D2E/DX2                !
 ! D4    D(5,2,3,1)           -179.6964         estimate D2E/DX2                !
 ! D5    D(5,2,3,4)              0.278          estimate D2E/DX2                !
 ! D6    D(15,2,3,1)             0.4507         estimate D2E/DX2                !
 ! D7    D(15,2,3,4)          -179.5749         estimate D2E/DX2                !
 ! D8    D(3,2,5,7)             -0.1672         estimate D2E/DX2                !
 ! D9    D(3,2,5,10)           179.7881         estimate D2E/DX2                !
 ! D10   D(15,2,5,7)           179.6776         estimate D2E/DX2                !
 ! D11   D(15,2,5,10)           -0.3671         estimate D2E/DX2                !
 ! D12   D(3,2,15,13)           -6.1898         estimate D2E/DX2                !
 ! D13   D(5,2,15,13)          173.9508         estimate D2E/DX2                !
 ! D14   D(1,3,4,6)            179.7501         estimate D2E/DX2                !
 ! D15   D(1,3,4,9)             -0.1145         estimate D2E/DX2                !
 ! D16   D(2,3,4,6)             -0.2227         estimate D2E/DX2                !
 ! D17   D(2,3,4,9)            179.9126         estimate D2E/DX2                !
 ! D18   D(3,4,6,7)              0.0669         estimate D2E/DX2                !
 ! D19   D(3,4,6,11)          -179.8963         estimate D2E/DX2                !
 ! D20   D(9,4,6,7)            179.924          estimate D2E/DX2                !
 ! D21   D(9,4,6,11)            -0.0392         estimate D2E/DX2                !
 ! D22   D(2,5,7,6)             -0.0156         estimate D2E/DX2                !
 ! D23   D(2,5,7,12)           179.9426         estimate D2E/DX2                !
 ! D24   D(10,5,7,6)          -179.9675         estimate D2E/DX2                !
 ! D25   D(10,5,7,12)           -0.0093         estimate D2E/DX2                !
 ! D26   D(4,6,7,5)              0.0605         estimate D2E/DX2                !
 ! D27   D(4,6,7,12)          -179.8972         estimate D2E/DX2                !
 ! D28   D(11,6,7,5)          -179.9762         estimate D2E/DX2                !
 ! D29   D(11,6,7,12)            0.0661         estimate D2E/DX2                !
 ! D30   D(1,8,13,14)         -137.6226         estimate D2E/DX2                !
 ! D31   D(1,8,13,15)           -4.4198         estimate D2E/DX2                !
 ! D32   D(8,13,15,2)            7.3388         estimate D2E/DX2                !
 ! D33   D(14,13,15,2)         109.4095         estimate D2E/DX2                !
 --------------------------------------------------------------------------------
 Trust Radius=3.00D-01 FncErr=1.00D-07 GrdErr=1.00D-06
 Number of steps in this run=     83 maximum allowed number of steps=    100.
 GradGradGradGradGradGradGradGradGradGradGradGradGradGradGradGradGradGrad

 Leave Link  103 at Fri Aug 27 00:28:08 2021, MaxMem= 17179869184 cpu:         0.1
 (Enter /public3/home/sc51754/softwares/g09e01/l202.exe)
                          Input orientation:                          
 ---------------------------------------------------------------------
 Center     Atomic      Atomic             Coordinates (Angstroms)
 Number     Number       Type             X           Y           Z
 ---------------------------------------------------------------------
      1          8           0        1.261476    1.387852    0.005408
      2          7           0        0.249425   -0.658880    0.011581
      3          6           0        0.210209    0.735997    0.005920
      4          6           0       -1.119592    1.287625    0.000474
      5          6           0       -0.843575   -1.460822    0.006702
      6          6           0       -2.218160    0.481905   -0.003521
      7          6           0       -2.095586   -0.930593   -0.001061
      8          1           0        2.701404    0.273138   -0.041623
      9          1           0       -1.196826    2.364370   -0.002539
     10          1           0       -0.649991   -2.523426    0.008616
     11          1           0       -3.205344    0.926047   -0.009282
     12          1           0       -2.960874   -1.573618   -0.005843
     13          8           0        3.106669   -0.619787   -0.085978
     14          1           0        3.833439   -0.624251    0.540740
     15          1           0        1.187279   -1.059291    0.022340
 ---------------------------------------------------------------------
                    Distance matrix (angstroms):
                    1          2          3          4          5
     1  O    0.000000
     2  N    2.283286   0.000000
     3  C    1.236963   1.395440   0.000000
     4  C    2.383182   2.379751   1.439685   0.000000
     5  C    3.542059   1.355649   2.436488   2.762279   0.000000
     6  C    3.595648   2.718565   2.441645   1.362370   2.379869
     7  C    4.079840   2.360734   2.845042   2.423439   1.359682
     8  H    1.821590   2.623679   2.534275   3.953602   3.946622
     9  H    2.645165   3.351400   2.152073   1.079516   3.841480
    10  H    4.353368   2.070142   3.371022   3.839883   1.080095
    11  H    4.490653   3.801034   3.420870   2.116883   3.357879
    12  H    5.157390   3.338124   3.923038   3.402509   2.120339
    13  O    2.728315   2.859176   3.199387   4.637561   4.039846
    14  H    3.309098   3.623033   3.906930   5.336635   4.781162
    15  H    2.448326   1.019811   2.044014   3.290919   2.070227
                    6          7          8          9         10
     6  C    0.000000
     7  C    1.417809   0.000000
     8  H    4.924139   4.945880   0.000000
     9  H    2.141681   3.415341   4.423910   0.000000
    10  H    3.389884   2.151036   4.365220   4.918303   0.000000
    11  H    1.082510   2.163040   5.942811   2.470418   4.292903
    12  H    2.185590   1.078066   5.955937   4.315046   2.498504
    13  O    5.438228   5.212223   0.981592   5.237578   4.212515
    14  H    6.175893   5.961605   1.557548   5.876272   4.898078
    15  H    3.738043   3.285470   2.017928   4.172053   2.349349
                   11         12         13         14         15
    11  H    0.000000
    12  H    2.511594   0.000000
    13  O    6.498999   6.142580   0.000000
    14  H    7.228445   6.882059   0.959682   0.000000
    15  H    4.820550   4.180012   1.972043   2.731330   0.000000
 Stoichiometry    C5H7NO2
 Framework group  C1[X(C5H7NO2)]
 Deg. of freedom    39
 Full point group                 C1      NOp   1
 Largest Abelian subgroup         C1      NOp   1
 Largest concise Abelian subgroup C1      NOp   1
                         Standard orientation:                         
 ---------------------------------------------------------------------
 Center     Atomic      Atomic             Coordinates (Angstroms)
 Number     Number       Type             X           Y           Z
 ---------------------------------------------------------------------
      1          8           0        1.261476    1.387852    0.005408
      2          7           0        0.249425   -0.658880    0.011581
      3          6           0        0.210209    0.735997    0.005920
      4          6           0       -1.119592    1.287625    0.000474
      5          6           0       -0.843575   -1.460822    0.006702
      6          6           0       -2.218160    0.481905   -0.003521
      7          6           0       -2.095586   -0.930593   -0.001061
      8          1           0        2.701404    0.273138   -0.041623
      9          1           0       -1.196826    2.364370   -0.002539
     10          1           0       -0.649991   -2.523426    0.008616
     11          1           0       -3.205344    0.926047   -0.009282
     12          1           0       -2.960874   -1.573618   -0.005843
     13          8           0        3.106669   -0.619787   -0.085978
     14          1           0        3.833439   -0.624251    0.540740
     15          1           0        1.187279   -1.059291    0.022340
 ---------------------------------------------------------------------
 Rotational constants (GHZ):      4.0248921      1.3974909      1.0390436
 Leave Link  202 at Fri Aug 27 00:28:09 2021, MaxMem= 17179869184 cpu:         4.2
 (Enter /public3/home/sc51754/softwares/g09e01/l301.exe)
 General basis read from cards:  (5D, 7F)
 Centers:       8      9     10     11     12     14     15
 S 4 1.00
     Exponent=  7.5423000000D+01 Coefficients=  2.4065000000D-03
     Exponent=  1.1350000000D+01 Coefficients=  1.8487000000D-02
     Exponent=  2.5993000000D+00 Coefficients=  8.9742000000D-02
     Exponent=  7.3513000000D-01 Coefficients=  2.8111000000D-01
 S 1 1.00
     Exponent=  2.3167000000D-01 Coefficients=  1.0000000000D+00
 S 1 1.00
     Exponent=  7.4147000000D-02 Coefficients=  1.0000000000D+00
 P 1 1.00
     Exponent=  1.6000000000D+00 Coefficients=  1.0000000000D+00
 P 1 1.00
     Exponent=  4.5000000000D-01 Coefficients=  1.0000000000D+00
 D 1 1.00
     Exponent=  1.2500000000D+00 Coefficients=  1.0000000000D+00
 ****
 Centers:       3      4      5      6      7
 S 7 1.00
     Exponent=  7.8571000000D+03 Coefficients=  5.6825000000D-04
     Exponent=  1.1787000000D+03 Coefficients=  4.3915000000D-03
     Exponent=  2.6832000000D+02 Coefficients=  2.2504000000D-02
     Exponent=  7.5948000000D+01 Coefficients=  8.6653000000D-02
     Exponent=  2.4559000000D+01 Coefficients=  2.4405000000D-01
     Exponent=  8.6212000000D+00 Coefficients=  4.4148000000D-01
     Exponent=  3.1278000000D+00 Coefficients=  3.5332000000D-01
 S 7 1.00
     Exponent=  1.1787000000D+03 Coefficients= -5.9492000000D-07
     Exponent=  2.6832000000D+02 Coefficients= -6.2748000000D-05
     Exponent=  7.5948000000D+01 Coefficients= -7.5773000000D-04
     Exponent=  2.4559000000D+01 Coefficients= -7.3308000000D-03
     Exponent=  8.6212000000D+00 Coefficients= -3.8932000000D-02
     Exponent=  3.1278000000D+00 Coefficients= -8.8908000000D-02
     Exponent=  8.2202000000D-01 Coefficients=  2.1689000000D-01
 S 1 1.00
     Exponent=  3.3017000000D-01 Coefficients=  1.0000000000D+00
 S 1 1.00
     Exponent=  1.1463000000D-01 Coefficients=  1.0000000000D+00
 P 4 1.00
     Exponent=  3.3775000000D+01 Coefficients=  6.0294000000D-03
     Exponent=  7.6766000000D+00 Coefficients=  4.3228000000D-02
     Exponent=  2.2357000000D+00 Coefficients=  1.6301000000D-01
     Exponent=  7.6447000000D-01 Coefficients=  3.6504000000D-01
 P 1 1.00
     Exponent=  2.6232000000D-01 Coefficients=  1.0000000000D+00
 P 1 1.00
     Exponent=  8.4638000000D-02 Coefficients=  1.0000000000D+00
 D 1 1.00
     Exponent=  1.4000000000D+00 Coefficients=  1.0000000000D+00
 D 1 1.00
     Exponent=  4.5000000000D-01 Coefficients=  1.0000000000D+00
 F 1 1.00
     Exponent=  9.5000000000D-01 Coefficients=  1.0000000000D+00
 ****
 Centers:       2
 S 7 1.00
     Exponent=  1.1101000000D+04 Coefficients=  5.4570000000D-04
     Exponent=  1.6653000000D+03 Coefficients=  4.2181000000D-03
     Exponent=  3.7908000000D+02 Coefficients=  2.1645000000D-02
     Exponent=  1.0730000000D+02 Coefficients=  8.3776000000D-02
     Exponent=  3.4747000000D+01 Coefficients=  2.3881000000D-01
     Exponent=  1.2249000000D+01 Coefficients=  4.3994000000D-01
     Exponent=  4.4743000000D+00 Coefficients=  3.6364000000D-01
 S 7 1.00
     Exponent=  1.6653000000D+03 Coefficients= -1.5006000000D-06
     Exponent=  3.7908000000D+02 Coefficients= -5.8753000000D-05
     Exponent=  1.0730000000D+02 Coefficients= -7.7453000000D-04
     Exponent=  3.4747000000D+01 Coefficients= -7.2161000000D-03
     Exponent=  1.2249000000D+01 Coefficients= -3.9338000000D-02
     Exponent=  4.4743000000D+00 Coefficients= -9.0611000000D-02
     Exponent=  1.2404000000D+00 Coefficients=  1.9882000000D-01
 S 1 1.00
     Exponent=  4.8743000000D-01 Coefficients=  1.0000000000D+00
 S 1 1.00
     Exponent=  1.6484000000D-01 Coefficients=  1.0000000000D+00
 P 4 1.00
     Exponent=  4.7934000000D+01 Coefficients=  6.1706000000D-03
     Exponent=  1.0999000000D+01 Coefficients=  4.4260000000D-02
     Exponent=  3.2472000000D+00 Coefficients=  1.6825000000D-01
     Exponent=  1.1114000000D+00 Coefficients=  3.6848000000D-01
 P 1 1.00
     Exponent=  3.7988000000D-01 Coefficients=  1.0000000000D+00
 P 1 1.00
     Exponent=  1.2068000000D-01 Coefficients=  1.0000000000D+00
 D 1 1.00
     Exponent=  1.8000000000D+00 Coefficients=  1.0000000000D+00
 D 1 1.00
     Exponent=  5.5000000000D-01 Coefficients=  1.0000000000D+00
 F 1 1.00
     Exponent=  1.0200000000D+00 Coefficients=  1.0000000000D+00
 ****
 Centers:       1     13
 S 7 1.00
     Exponent=  1.4782000000D+04 Coefficients=  5.3519000000D-04
     Exponent=  2.2173000000D+03 Coefficients=  4.1375000000D-03
     Exponent=  5.0474000000D+02 Coefficients=  2.1245000000D-02
     Exponent=  1.4287000000D+02 Coefficients=  8.2453000000D-02
     Exponent=  4.6300000000D+01 Coefficients=  2.3671000000D-01
     Exponent=  1.6337000000D+01 Coefficients=  4.4039000000D-01
     Exponent=  5.9828000000D+00 Coefficients=  3.6465000000D-01
 S 7 1.00
     Exponent=  2.2173000000D+03 Coefficients= -1.9275000000D-06
     Exponent=  5.0474000000D+02 Coefficients= -5.7964000000D-05
     Exponent=  1.4287000000D+02 Coefficients= -7.9494000000D-04
     Exponent=  4.6300000000D+01 Coefficients= -7.3125000000D-03
     Exponent=  1.6337000000D+01 Coefficients= -4.0574000000D-02
     Exponent=  5.9828000000D+00 Coefficients= -9.1594000000D-02
     Exponent=  1.6718000000D+00 Coefficients=  2.0940000000D-01
 S 1 1.00
     Exponent=  6.4662000000D-01 Coefficients=  1.0000000000D+00
 S 1 1.00
     Exponent=  2.1669000000D-01 Coefficients=  1.0000000000D+00
 P 4 1.00
     Exponent=  6.0424000000D+01 Coefficients=  6.8949000000D-03
     Exponent=  1.3935000000D+01 Coefficients=  4.9005000000D-02
     Exponent=  4.1531000000D+00 Coefficients=  1.8255000000D-01
     Exponent=  1.4158000000D+00 Coefficients=  3.7633000000D-01
 P 1 1.00
     Exponent=  4.7549000000D-01 Coefficients=  1.0000000000D+00
 P 1 1.00
     Exponent=  1.4529000000D-01 Coefficients=  1.0000000000D+00
 D 1 1.00
     Exponent=  2.2000000000D+00 Coefficients=  1.0000000000D+00
 D 1 1.00
     Exponent=  6.5000000000D-01 Coefficients=  1.0000000000D+00
 F 1 1.00
     Exponent=  1.1000000000D+00 Coefficients=  1.0000000000D+00
 ****
 Ernie: Thresh=  0.10000D-02 Tol=  0.10000D-05 Strict=F.
 Ernie:  8 primitive shells out of 263 were deleted.
 There are   385 symmetry adapted cartesian basis functions of A   symmetry.
 There are   338 symmetry adapted basis functions of A   symmetry.
   338 basis functions,   566 primitive gaussians,   385 cartesian basis functions
    30 alpha electrons       30 beta electrons
       nuclear repulsion energy       356.8539014902 Hartrees.
 IExCor= 4134 DFT=T Ex+Corr=M06L ExCW=0 ScaHFX=  0.000000
 ScaDFX=  1.000000  1.000000  1.000000  1.000000 ScalE2=  1.000000  1.000000
 IRadAn=      0 IRanWt=     -1 IRanGd=            0 ICorTp=0 IEmpDi=  4
 NAtoms=   15 NActive=   15 NUniq=   15 SFac= 1.00D+00 NAtFMM=   60 NAOKFM=F Big=F
 Integral buffers will be    131072 words long.
 Raffenetti 2 integral format.
 Two-electron integral symmetry is turned on.
 Leave Link  301 at Fri Aug 27 00:28:09 2021, MaxMem= 17179869184 cpu:         1.8
 (Enter /public3/home/sc51754/softwares/g09e01/l302.exe)
 NPDir=0 NMtPBC=     1 NCelOv=     1 NCel=       1 NClECP=     1 NCelD=      1
         NCelK=      1 NCelE2=     1 NClLst=     1 CellRange=     0.0.
 One-electron integrals computed using PRISM.
 NBasis=   338 RedAO= T EigKep=  1.57D-04  NBF=   338
 NBsUse=   338 1.00D-06 EigRej= -1.00D+00 NBFU=   338
 Precomputing XC quadrature grid using
 IXCGrd= 4 IRadAn=           0 IRanWt=          -1 IRanGd=           0 AccXCQ= 0.00D+00.
 Generated NRdTot=       0 NPtTot=           0 NUsed=           0 NTot=          32
 NSgBfM=   385   385   385   385   385 MxSgAt=    15 MxSgA2=    15.
 Leave Link  302 at Fri Aug 27 00:28:10 2021, MaxMem= 17179869184 cpu:        49.2
 (Enter /public3/home/sc51754/softwares/g09e01/l303.exe)
 DipDrv:  MaxL=1.
 Leave Link  303 at Fri Aug 27 00:28:10 2021, MaxMem= 17179869184 cpu:        14.4
 (Enter /public3/home/sc51754/softwares/g09e01/l401.exe)
 ExpMin= 7.41D-02 ExpMax= 1.48D+04 ExpMxC= 5.05D+02 IAcc=2 IRadAn=         4 AccDes= 0.00D+00
 Harris functional with IExCor= 1009 and IRadAn=       4 diagonalized for initial guess.
 HarFok:  IExCor= 1009 AccDes= 0.00D+00 IRadAn=         4 IDoV= 1 UseB2=F ITyADJ=14
 ICtDFT=  3500011 ScaDFX=  1.000000  1.000000  1.000000  1.000000
 FoFCou: FMM=F IPFlag=           0 FMFlag=      100000 FMFlg1=           0
         NFxFlg=           0 DoJE=T BraDBF=F KetDBF=T FulRan=T
         wScrn=  0.000000 ICntrl=     500 IOpCl=  0 I1Cent=   200000004 NGrid=           0
         NMat0=    1 NMatS0=      1 NMatT0=    0 NMatD0=    1 NMtDS0=    0 NMtDT0=    0
 Petite list used in FoFCou.
 Harris En= -399.816960565454    
 JPrj=0 DoOrth=F DoCkMO=F.
 Leave Link  401 at Fri Aug 27 00:28:11 2021, MaxMem= 17179869184 cpu:        47.2
 (Enter /public3/home/sc51754/softwares/g09e01/l502.exe)
 Closed shell SCF:
 Using DIIS extrapolation, IDIIS=  1040.
 Integral symmetry usage will be decided dynamically.
 Keep J ints in memory in canonical form, NReq=1670404686.
 IVT=      490665 IEndB=      490665 NGot= 17179869184 MDV= 15538220534
 LenX= 15538220534 LenY= 15538071868
 Requested convergence on RMS density matrix=1.00D-08 within 128 cycles.
 Requested convergence on MAX density matrix=1.00D-06.
 Requested convergence on             energy=1.00D-06.
 No special actions if energy rises.
 FoFCou: FMM=F IPFlag=           0 FMFlag=           0 FMFlg1=           0
         NFxFlg=           0 DoJE=F BraDBF=F KetDBF=F FulRan=T
         wScrn=  0.000000 ICntrl=     600 IOpCl=  0 I1Cent=           0 NGrid=           0
         NMat0=    1 NMatS0=  57291 NMatT0=    0 NMatD0=    1 NMtDS0=    0 NMtDT0=    0
 Symmetry not used in FoFCou.
 Integral accuracy reduced to 1.0D-05 until final iterations.

 Cycle   1  Pass 0  IDiag  1:
 E= -399.824157232855    
 DIIS: error= 2.76D-02 at cycle   1 NSaved=   1.
 NSaved= 1 IEnMin= 1 EnMin= -399.824157232855     IErMin= 1 ErrMin= 2.76D-02
 ErrMax= 2.76D-02  0.00D+00 EMaxC= 1.00D-01 BMatC= 3.20D-01 BMatP= 3.20D-01
 IDIUse=3 WtCom= 7.24D-01 WtEn= 2.76D-01
 Coeff-Com:  0.100D+01
 Coeff-En:   0.100D+01
 Coeff:      0.100D+01
 Gap=     0.107 Goal=   None    Shift=    0.000
 GapD=    0.107 DampG=1.000 DampE=0.500 DampFc=0.5000 IDamp=-1.
 Damping current iteration by 5.00D-01
 RMSDP=3.46D-03 MaxDP=1.38D-01              OVMax= 3.92D-01

 Cycle   2  Pass 0  IDiag  1:
 E= -399.854836738460     Delta-E=       -0.030679505605 Rises=F Damp=T
 DIIS: error= 1.24D-02 at cycle   2 NSaved=   2.
 NSaved= 2 IEnMin= 2 EnMin= -399.854836738460     IErMin= 2 ErrMin= 1.24D-02
 ErrMax= 1.24D-02  0.00D+00 EMaxC= 1.00D-01 BMatC= 7.10D-02 BMatP= 3.20D-01
 IDIUse=3 WtCom= 8.76D-01 WtEn= 1.24D-01
 Coeff-Com:  0.254D+00 0.746D+00
 Coeff-En:   0.442D+00 0.558D+00
 Coeff:      0.278D+00 0.722D+00
 Gap=     0.191 Goal=   None    Shift=    0.000
 RMSDP=1.42D-03 MaxDP=4.68D-02 DE=-3.07D-02 OVMax= 3.96D-01

 Cycle   3  Pass 0  IDiag  1:
 E= -399.999243925853     Delta-E=       -0.144407187393 Rises=F Damp=F
 DIIS: error= 1.63D-02 at cycle   3 NSaved=   3.
 NSaved= 3 IEnMin= 3 EnMin= -399.999243925853     IErMin= 2 ErrMin= 1.24D-02
 ErrMax= 1.63D-02  0.00D+00 EMaxC= 1.00D-01 BMatC= 6.84D-02 BMatP= 7.10D-02
 IDIUse=3 WtCom= 8.37D-01 WtEn= 1.63D-01
 Coeff-Com:  0.817D-01 0.483D+00 0.436D+00
 Coeff-En:   0.000D+00 0.194D-01 0.981D+00
 Coeff:      0.684D-01 0.407D+00 0.524D+00
 Gap=     0.131 Goal=   None    Shift=    0.000
 RMSDP=9.39D-04 MaxDP=4.93D-02 DE=-1.44D-01 OVMax= 2.16D-01

 Cycle   4  Pass 0  IDiag  1:
 E= -400.032000309966     Delta-E=       -0.032756384113 Rises=F Damp=F
 DIIS: error= 1.11D-02 at cycle   4 NSaved=   4.
 NSaved= 4 IEnMin= 4 EnMin= -400.032000309966     IErMin= 4 ErrMin= 1.11D-02
 ErrMax= 1.11D-02  0.00D+00 EMaxC= 1.00D-01 BMatC= 3.51D-02 BMatP= 6.84D-02
 IDIUse=3 WtCom= 8.89D-01 WtEn= 1.11D-01
 Coeff-Com: -0.158D-02 0.101D+00 0.412D+00 0.489D+00
 Coeff-En:   0.000D+00 0.000D+00 0.374D+00 0.626D+00
 Coeff:     -0.140D-02 0.894D-01 0.408D+00 0.504D+00
 Gap=     0.138 Goal=   None    Shift=    0.000
 RMSDP=4.48D-04 MaxDP=2.39D-02 DE=-3.28D-02 OVMax= 1.07D-01

 Cycle   5  Pass 0  IDiag  1:
 E= -400.062108302970     Delta-E=       -0.030107993004 Rises=F Damp=F
 DIIS: error= 2.14D-03 at cycle   5 NSaved=   5.
 NSaved= 5 IEnMin= 5 EnMin= -400.062108302970     IErMin= 5 ErrMin= 2.14D-03
 ErrMax= 2.14D-03  0.00D+00 EMaxC= 1.00D-01 BMatC= 1.49D-03 BMatP= 3.51D-02
 IDIUse=3 WtCom= 9.79D-01 WtEn= 2.14D-02
 Coeff-Com: -0.863D-02 0.149D-01 0.206D+00 0.305D+00 0.483D+00
 Coeff-En:   0.000D+00 0.000D+00 0.000D+00 0.000D+00 0.100D+01
 Coeff:     -0.844D-02 0.146D-01 0.202D+00 0.298D+00 0.494D+00
 Gap=     0.134 Goal=   None    Shift=    0.000
 RMSDP=1.23D-04 MaxDP=5.09D-03 DE=-3.01D-02 OVMax= 2.34D-02

 Cycle   6  Pass 0  IDiag  1:
 E= -400.063239886683     Delta-E=       -0.001131583713 Rises=F Damp=F
 DIIS: error= 1.27D-03 at cycle   6 NSaved=   6.
 NSaved= 6 IEnMin= 6 EnMin= -400.063239886683     IErMin= 6 ErrMin= 1.27D-03
 ErrMax= 1.27D-03  0.00D+00 EMaxC= 1.00D-01 BMatC= 2.68D-04 BMatP= 1.49D-03
 IDIUse=3 WtCom= 9.87D-01 WtEn= 1.27D-02
 Coeff-Com: -0.499D-02-0.209D-02 0.652D-01 0.109D+00 0.324D+00 0.509D+00
 Coeff-En:   0.000D+00 0.000D+00 0.000D+00 0.000D+00 0.205D+00 0.795D+00
 Coeff:     -0.493D-02-0.206D-02 0.644D-01 0.108D+00 0.323D+00 0.512D+00
 Gap=     0.135 Goal=   None    Shift=    0.000
 RMSDP=4.94D-05 MaxDP=2.48D-03 DE=-1.13D-03 OVMax= 1.07D-02

 Cycle   7  Pass 0  IDiag  1:
 E= -400.063497135046     Delta-E=       -0.000257248363 Rises=F Damp=F
 DIIS: error= 3.64D-04 at cycle   7 NSaved=   7.
 NSaved= 7 IEnMin= 7 EnMin= -400.063497135046     IErMin= 7 ErrMin= 3.64D-04
 ErrMax= 3.64D-04  0.00D+00 EMaxC= 1.00D-01 BMatC= 4.34D-05 BMatP= 2.68D-04
 IDIUse=3 WtCom= 9.96D-01 WtEn= 3.64D-03
 Coeff-Com: -0.223D-02-0.227D-02 0.175D-01 0.327D-01 0.149D+00 0.345D+00
 Coeff-Com:  0.460D+00
 Coeff-En:   0.000D+00 0.000D+00 0.000D+00 0.000D+00 0.000D+00 0.145D+00
 Coeff-En:   0.855D+00
 Coeff:     -0.222D-02-0.226D-02 0.175D-01 0.326D-01 0.148D+00 0.345D+00
 Coeff:      0.462D+00
 Gap=     0.135 Goal=   None    Shift=    0.000
 RMSDP=1.62D-05 MaxDP=6.30D-04 DE=-2.57D-04 OVMax= 2.87D-03

 Cycle   8  Pass 0  IDiag  1:
 E= -400.063540687374     Delta-E=       -0.000043552328 Rises=F Damp=F
 DIIS: error= 7.00D-05 at cycle   8 NSaved=   8.
 NSaved= 8 IEnMin= 8 EnMin= -400.063540687374     IErMin= 8 ErrMin= 7.00D-05
 ErrMax= 7.00D-05  0.00D+00 EMaxC= 1.00D-01 BMatC= 1.39D-06 BMatP= 4.34D-05
 IDIUse=1 WtCom= 1.00D+00 WtEn= 0.00D+00
 Coeff-Com: -0.273D-03-0.247D-03-0.106D-02-0.991D-03 0.219D-01 0.887D-01
 Coeff-Com:  0.199D+00 0.693D+00
 Coeff:     -0.273D-03-0.247D-03-0.106D-02-0.991D-03 0.219D-01 0.887D-01
 Coeff:      0.199D+00 0.693D+00
 Gap=     0.135 Goal=   None    Shift=    0.000
 RMSDP=3.61D-06 MaxDP=1.43D-04 DE=-4.36D-05 OVMax= 7.13D-04

 Initial convergence to 1.0D-05 achieved.  Increase integral accuracy.
 Cycle   9  Pass 1  IDiag  1:
 E= -400.064201028026     Delta-E=       -0.000660340652 Rises=F Damp=F
 DIIS: error= 3.96D-04 at cycle   1 NSaved=   1.
 NSaved= 1 IEnMin= 1 EnMin= -400.064201028026     IErMin= 1 ErrMin= 3.96D-04
 ErrMax= 3.96D-04  0.00D+00 EMaxC= 1.00D-01 BMatC= 1.18D-04 BMatP= 1.18D-04
 IDIUse=3 WtCom= 9.96D-01 WtEn= 3.96D-03
 Coeff-Com:  0.100D+01
 Coeff-En:   0.100D+01
 Coeff:      0.100D+01
 Gap=     0.135 Goal=   None    Shift=    0.000
 RMSDP=3.61D-06 MaxDP=1.43D-04 DE=-6.60D-04 OVMax= 1.22D-03

 Cycle  10  Pass 1  IDiag  1:
 E= -400.064247283563     Delta-E=       -0.000046255537 Rises=F Damp=F
 DIIS: error= 1.04D-04 at cycle   2 NSaved=   2.
 NSaved= 2 IEnMin= 2 EnMin= -400.064247283563     IErMin= 2 ErrMin= 1.04D-04
 ErrMax= 1.04D-04  0.00D+00 EMaxC= 1.00D-01 BMatC= 4.67D-06 BMatP= 1.18D-04
 IDIUse=3 WtCom= 9.99D-01 WtEn= 1.04D-03
 Coeff-Com:  0.980D-01 0.902D+00
 Coeff-En:   0.000D+00 0.100D+01
 Coeff:      0.979D-01 0.902D+00
 Gap=     0.135 Goal=   None    Shift=    0.000
 RMSDP=1.01D-05 MaxDP=4.29D-04 DE=-4.63D-05 OVMax= 2.29D-03

 Cycle  11  Pass 1  IDiag  1:
 E= -400.064244212210     Delta-E=        0.000003071354 Rises=F Damp=F
 DIIS: error= 1.73D-04 at cycle   3 NSaved=   3.
 NSaved= 3 IEnMin= 2 EnMin= -400.064247283563     IErMin= 2 ErrMin= 1.04D-04
 ErrMax= 1.73D-04  0.00D+00 EMaxC= 1.00D-01 BMatC= 5.82D-06 BMatP= 4.67D-06
 IDIUse=3 WtCom= 4.32D-01 WtEn= 5.68D-01
 Coeff-Com:  0.355D-01 0.540D+00 0.425D+00
 Coeff-En:   0.000D+00 0.646D+00 0.354D+00
 Coeff:      0.153D-01 0.600D+00 0.385D+00
 Gap=     0.135 Goal=   None    Shift=    0.000
 RMSDP=7.04D-06 MaxDP=3.58D-04 DE= 3.07D-06 OVMax= 1.87D-03

 Cycle  12  Pass 1  IDiag  1:
 E= -400.064250132538     Delta-E=       -0.000005920328 Rises=F Damp=F
 DIIS: error= 4.60D-05 at cycle   4 NSaved=   4.
 NSaved= 4 IEnMin= 4 EnMin= -400.064250132538     IErMin= 4 ErrMin= 4.60D-05
 ErrMax= 4.60D-05  0.00D+00 EMaxC= 1.00D-01 BMatC= 4.52D-07 BMatP= 4.67D-06
 IDIUse=1 WtCom= 1.00D+00 WtEn= 0.00D+00
 Coeff-Com: -0.164D-02 0.165D+00 0.222D+00 0.614D+00
 Coeff:     -0.164D-02 0.165D+00 0.222D+00 0.614D+00
 Gap=     0.135 Goal=   None    Shift=    0.000
 RMSDP=1.82D-06 MaxDP=9.02D-05 DE=-5.92D-06 OVMax= 4.31D-04

 Cycle  13  Pass 1  IDiag  1:
 E= -400.064250506706     Delta-E=       -0.000000374168 Rises=F Damp=F
 DIIS: error= 1.38D-05 at cycle   5 NSaved=   5.
 NSaved= 5 IEnMin= 5 EnMin= -400.064250506706     IErMin= 5 ErrMin= 1.38D-05
 ErrMax= 1.38D-05  0.00D+00 EMaxC= 1.00D-01 BMatC= 6.67D-08 BMatP= 4.52D-07
 IDIUse=1 WtCom= 1.00D+00 WtEn= 0.00D+00
 Coeff-Com: -0.287D-02 0.701D-01 0.113D+00 0.366D+00 0.454D+00
 Coeff:     -0.287D-02 0.701D-01 0.113D+00 0.366D+00 0.454D+00
 Gap=     0.135 Goal=   None    Shift=    0.000
 RMSDP=6.80D-07 MaxDP=3.04D-05 DE=-3.74D-07 OVMax= 1.33D-04

 Cycle  14  Pass 1  IDiag  1:
 E= -400.064250563090     Delta-E=       -0.000000056384 Rises=F Damp=F
 DIIS: error= 4.32D-06 at cycle   6 NSaved=   6.
 NSaved= 6 IEnMin= 6 EnMin= -400.064250563090     IErMin= 6 ErrMin= 4.32D-06
 ErrMax= 4.32D-06  0.00D+00 EMaxC= 1.00D-01 BMatC= 6.78D-09 BMatP= 6.67D-08
 IDIUse=1 WtCom= 1.00D+00 WtEn= 0.00D+00
 Coeff-Com: -0.153D-02 0.216D-01 0.404D-01 0.142D+00 0.272D+00 0.526D+00
 Coeff:     -0.153D-02 0.216D-01 0.404D-01 0.142D+00 0.272D+00 0.526D+00
 Gap=     0.135 Goal=   None    Shift=    0.000
 RMSDP=2.57D-07 MaxDP=1.58D-05 DE=-5.64D-08 OVMax= 5.17D-05

 Cycle  15  Pass 1  IDiag  1:
 E= -400.064250566616     Delta-E=       -0.000000003526 Rises=F Damp=F
 DIIS: error= 3.67D-06 at cycle   7 NSaved=   7.
 NSaved= 7 IEnMin= 7 EnMin= -400.064250566616     IErMin= 7 ErrMin= 3.67D-06
 ErrMax= 3.67D-06  0.00D+00 EMaxC= 1.00D-01 BMatC= 2.95D-09 BMatP= 6.78D-09
 IDIUse=1 WtCom= 1.00D+00 WtEn= 0.00D+00
 Coeff-Com: -0.483D-03-0.604D-03 0.332D-02 0.190D-01 0.104D+00 0.419D+00
 Coeff-Com:  0.456D+00
 Coeff:     -0.483D-03-0.604D-03 0.332D-02 0.190D-01 0.104D+00 0.419D+00
 Coeff:      0.456D+00
 Gap=     0.135 Goal=   None    Shift=    0.000
 RMSDP=1.23D-07 MaxDP=7.15D-06 DE=-3.53D-09 OVMax= 2.17D-05

 Cycle  16  Pass 1  IDiag  1:
 E= -400.064250568990     Delta-E=       -0.000000002375 Rises=F Damp=F
 DIIS: error= 5.53D-07 at cycle   8 NSaved=   8.
 NSaved= 8 IEnMin= 8 EnMin= -400.064250568990     IErMin= 8 ErrMin= 5.53D-07
 ErrMax= 5.53D-07  0.00D+00 EMaxC= 1.00D-01 BMatC= 7.53D-11 BMatP= 2.95D-09
 IDIUse=1 WtCom= 1.00D+00 WtEn= 0.00D+00
 Coeff-Com: -0.109D-03-0.177D-02-0.153D-02-0.200D-02 0.276D-01 0.154D+00
 Coeff-Com:  0.221D+00 0.602D+00
 Coeff:     -0.109D-03-0.177D-02-0.153D-02-0.200D-02 0.276D-01 0.154D+00
 Coeff:      0.221D+00 0.602D+00
 Gap=     0.135 Goal=   None    Shift=    0.000
 RMSDP=3.62D-08 MaxDP=1.32D-06 DE=-2.37D-09 OVMax= 7.56D-06

 Cycle  17  Pass 1  IDiag  1:
 E= -400.064250569007     Delta-E=       -0.000000000017 Rises=F Damp=F
 DIIS: error= 4.60D-07 at cycle   9 NSaved=   9.
 NSaved= 9 IEnMin= 9 EnMin= -400.064250569007     IErMin= 9 ErrMin= 4.60D-07
 ErrMax= 4.60D-07  0.00D+00 EMaxC= 1.00D-01 BMatC= 3.76D-11 BMatP= 7.53D-11
 IDIUse=1 WtCom= 1.00D+00 WtEn= 0.00D+00
 Coeff-Com:  0.463D-05-0.123D-02-0.179D-02-0.504D-02 0.357D-02 0.471D-01
 Coeff-Com:  0.907D-01 0.434D+00 0.432D+00
 Coeff:      0.463D-05-0.123D-02-0.179D-02-0.504D-02 0.357D-02 0.471D-01
 Coeff:      0.907D-01 0.434D+00 0.432D+00
 Gap=     0.135 Goal=   None    Shift=    0.000
 RMSDP=1.71D-08 MaxDP=6.82D-07 DE=-1.66D-11 OVMax= 3.69D-06

 Cycle  18  Pass 1  IDiag  1:
 E= -400.064250569058     Delta-E=       -0.000000000051 Rises=F Damp=F
 DIIS: error= 1.28D-07 at cycle  10 NSaved=  10.
 NSaved=10 IEnMin=10 EnMin= -400.064250569058     IErMin=10 ErrMin= 1.28D-07
 ErrMax= 1.28D-07  0.00D+00 EMaxC= 1.00D-01 BMatC= 2.86D-12 BMatP= 3.76D-11
 IDIUse=1 WtCom= 1.00D+00 WtEn= 0.00D+00
 Coeff-Com:  0.190D-04-0.486D-03-0.853D-03-0.281D-02-0.200D-02 0.473D-02
 Coeff-Com:  0.226D-01 0.184D+00 0.257D+00 0.537D+00
 Coeff:      0.190D-04-0.486D-03-0.853D-03-0.281D-02-0.200D-02 0.473D-02
 Coeff:      0.226D-01 0.184D+00 0.257D+00 0.537D+00
 Gap=     0.135 Goal=   None    Shift=    0.000
 RMSDP=4.65D-09 MaxDP=2.55D-07 DE=-5.12D-11 OVMax= 8.99D-07

 SCF Done:  E(RM06L) =  -400.064250569     A.U. after   18 cycles
            NFock= 18  Conv=0.46D-08     -V/T= 2.0038
 KE= 3.985612171560D+02 PE=-1.649871505398D+03 EE= 4.943921361830D+02
 Leave Link  502 at Fri Aug 27 00:28:42 2021, MaxMem= 17179869184 cpu:       441.9
 (Enter /public3/home/sc51754/softwares/g09e01/l601.exe)
 Copying SCF densities to generalized density rwf, IOpCl= 0 IROHF=0.

 **********************************************************************

            Population analysis using the SCF density.

 **********************************************************************

 Orbital symmetries:
       Occupied  (A) (A) (A) (A) (A) (A) (A) (A) (A) (A) (A) (A)
                 (A) (A) (A) (A) (A) (A) (A) (A) (A) (A) (A) (A)
                 (A) (A) (A) (A) (A) (A)
       Virtual   (A) (A) (A) (A) (A) (A) (A) (A) (A) (A) (A) (A)
                 (A) (A) (A) (A) (A) (A) (A) (A) (A) (A) (A) (A)
                 (A) (A) (A) (A) (A) (A) (A) (A) (A) (A) (A) (A)
                 (A) (A) (A) (A) (A) (A) (A) (A) (A) (A) (A) (A)
                 (A) (A) (A) (A) (A) (A) (A) (A) (A) (A) (A) (A)
                 (A) (A) (A) (A) (A) (A) (A) (A) (A) (A) (A) (A)
                 (A) (A) (A) (A) (A) (A) (A) (A) (A) (A) (A) (A)
                 (A) (A) (A) (A) (A) (A) (A) (A) (A) (A) (A) (A)
                 (A) (A) (A) (A) (A) (A) (A) (A) (A) (A) (A) (A)
                 (A) (A) (A) (A) (A) (A) (A) (A) (A) (A) (A) (A)
                 (A) (A) (A) (A) (A) (A) (A) (A) (A) (A) (A) (A)
                 (A) (A) (A) (A) (A) (A) (A) (A) (A) (A) (A) (A)
                 (A) (A) (A) (A) (A) (A) (A) (A) (A) (A) (A) (A)
                 (A) (A) (A) (A) (A) (A) (A) (A) (A) (A) (A) (A)
                 (A) (A) (A) (A) (A) (A) (A) (A) (A) (A) (A) (A)
                 (A) (A) (A) (A) (A) (A) (A) (A) (A) (A) (A) (A)
                 (A) (A) (A) (A) (A) (A) (A) (A) (A) (A) (A) (A)
                 (A) (A) (A) (A) (A) (A) (A) (A) (A) (A) (A) (A)
                 (A) (A) (A) (A) (A) (A) (A) (A) (A) (A) (A) (A)
                 (A) (A) (A) (A) (A) (A) (A) (A) (A) (A) (A) (A)
                 (A) (A) (A) (A) (A) (A) (A) (A) (A) (A) (A) (A)
                 (A) (A) (A) (A) (A) (A) (A) (A) (A) (A) (A) (A)
                 (A) (A) (A) (A) (A) (A) (A) (A) (A) (A) (A) (A)
                 (A) (A) (A) (A) (A) (A) (A) (A) (A) (A) (A) (A)
                 (A) (A) (A) (A) (A) (A) (A) (A) (A) (A) (A) (A)
                 (A) (A) (A) (A) (A) (A) (A) (A)
 The electronic state is 1-A.
 Alpha  occ. eigenvalues --  -18.94842 -18.92389 -14.22702 -10.14770 -10.11152
 Alpha  occ. eigenvalues --  -10.07622 -10.06083 -10.05704  -1.00637  -0.96790
 Alpha  occ. eigenvalues --   -0.92645  -0.78804  -0.72705  -0.62178  -0.60232
 Alpha  occ. eigenvalues --   -0.52593  -0.48675  -0.47064  -0.44869  -0.43010
 Alpha  occ. eigenvalues --   -0.41083  -0.39821  -0.35742  -0.34940  -0.33464
 Alpha  occ. eigenvalues --   -0.31977  -0.28808  -0.26560  -0.22836  -0.20615
 Alpha virt. eigenvalues --   -0.07114  -0.02096   0.02328   0.04001   0.04891
 Alpha virt. eigenvalues --    0.06388   0.08341   0.09833   0.11139   0.12853
 Alpha virt. eigenvalues --    0.14680   0.17336   0.17841   0.18119   0.19688
 Alpha virt. eigenvalues --    0.20738   0.21411   0.21974   0.22892   0.24573
 Alpha virt. eigenvalues --    0.26080   0.26402   0.26733   0.27672   0.28385
 Alpha virt. eigenvalues --    0.28594   0.29497   0.30423   0.32038   0.33412
 Alpha virt. eigenvalues --    0.34570   0.35818   0.37390   0.38064   0.39552
 Alpha virt. eigenvalues --    0.41892   0.42706   0.44650   0.45823   0.48074
 Alpha virt. eigenvalues --    0.49009   0.50750   0.51797   0.53491   0.55391
 Alpha virt. eigenvalues --    0.55854   0.58759   0.60627   0.61828   0.62161
 Alpha virt. eigenvalues --    0.64324   0.65926   0.69403   0.72806   0.73947
 Alpha virt. eigenvalues --    0.74980   0.77449   0.79455   0.80625   0.82881
 Alpha virt. eigenvalues --    0.85921   0.87402   0.90444   0.91718   0.92171
 Alpha virt. eigenvalues --    0.93686   0.96400   0.98228   1.00529   1.02907
 Alpha virt. eigenvalues --    1.05612   1.07577   1.08600   1.11104   1.11278
 Alpha virt. eigenvalues --    1.13139   1.13896   1.16240   1.16699   1.18611
 Alpha virt. eigenvalues --    1.19227   1.22178   1.25055   1.25640   1.26593
 Alpha virt. eigenvalues --    1.26869   1.28901   1.32571   1.34796   1.38322
 Alpha virt. eigenvalues --    1.40664   1.41693   1.42294   1.45700   1.46754
 Alpha virt. eigenvalues --    1.46819   1.48047   1.49084   1.52179   1.53946
 Alpha virt. eigenvalues --    1.58063   1.59631   1.62543   1.66174   1.66788
 Alpha virt. eigenvalues --    1.68470   1.69045   1.70036   1.74440   1.74857
 Alpha virt. eigenvalues --    1.80308   1.80610   1.83809   1.87812   1.88132
 Alpha virt. eigenvalues --    1.90353   1.91137   1.92646   1.95676   1.98497
 Alpha virt. eigenvalues --    2.02480   2.04260   2.06106   2.07687   2.09812
 Alpha virt. eigenvalues --    2.11658   2.12607   2.16350   2.17599   2.19832
 Alpha virt. eigenvalues --    2.24716   2.25383   2.26466   2.28390   2.31675
 Alpha virt. eigenvalues --    2.32744   2.46220   2.55838   2.56899   2.62504
 Alpha virt. eigenvalues --    2.67039   2.91755   2.93065   2.94489   2.95367
 Alpha virt. eigenvalues --    2.99052   3.06430   3.17637   3.22684   3.24169
 Alpha virt. eigenvalues --    3.25020   3.26716   3.28275   3.30950   3.32535
 Alpha virt. eigenvalues --    3.37635   3.40227   3.43483   3.45326   3.50349
 Alpha virt. eigenvalues --    3.52147   3.52744   3.57645   3.61064   3.62975
 Alpha virt. eigenvalues --    3.64104   3.65210   3.66827   3.69497   3.70134
 Alpha virt. eigenvalues --    3.70955   3.73811   3.77958   3.79596   3.82212
 Alpha virt. eigenvalues --    3.84544   3.88730   3.92505   3.96638   3.98088
 Alpha virt. eigenvalues --    3.99288   3.99802   4.00796   4.05456   4.07480
 Alpha virt. eigenvalues --    4.13400   4.14493   4.14983   4.15897   4.17184
 Alpha virt. eigenvalues --    4.17768   4.19279   4.23772   4.24437   4.24846
 Alpha virt. eigenvalues --    4.25895   4.27758   4.29421   4.31276   4.31777
 Alpha virt. eigenvalues --    4.33170   4.34456   4.36002   4.36773   4.37970
 Alpha virt. eigenvalues --    4.38870   4.41411   4.41841   4.43302   4.44837
 Alpha virt. eigenvalues --    4.46188   4.48090   4.49932   4.50520   4.53045
 Alpha virt. eigenvalues --    4.55816   4.56000   4.57280   4.57476   4.58240
 Alpha virt. eigenvalues --    4.61673   4.63417   4.63702   4.66189   4.69321
 Alpha virt. eigenvalues --    4.71735   4.72978   4.74059   4.77634   4.79783
 Alpha virt. eigenvalues --    4.80309   4.83664   4.85012   4.92203   4.96206
 Alpha virt. eigenvalues --    4.97117   4.98679   5.00500   5.03435   5.05401
 Alpha virt. eigenvalues --    5.06764   5.08278   5.08884   5.11828   5.13396
 Alpha virt. eigenvalues --    5.15830   5.21084   5.22177   5.28974   5.30814
 Alpha virt. eigenvalues --    5.34752   5.34985   5.39501   5.41206   5.43697
 Alpha virt. eigenvalues --    5.45182   5.46109   5.51253   5.51992   5.52859
 Alpha virt. eigenvalues --    5.59403   5.61046   5.65691   5.66950   5.68091
 Alpha virt. eigenvalues --    5.73029   5.74620   5.81486   5.83256   5.85876
 Alpha virt. eigenvalues --    5.88541   5.97212   6.00101   6.04339   6.09524
 Alpha virt. eigenvalues --    6.10651   6.15120   6.20272   6.22023   6.23743
 Alpha virt. eigenvalues --    6.25299   6.28268   6.37136   6.38833   6.42063
 Alpha virt. eigenvalues --    6.45314   6.47846   6.53162   6.59149   6.65953
 Alpha virt. eigenvalues --    6.67942   6.68972   6.76859   6.95515   7.06642
 Alpha virt. eigenvalues --    7.10104   7.16768   7.32501   7.40380   7.59860
 Alpha virt. eigenvalues --    9.63533  12.45756  13.32250  14.90871  15.65724
 Alpha virt. eigenvalues --   18.15815  18.51351  22.95036
          Condensed to atoms (all electrons):
               1          2          3          4          5          6
     1  O    8.377915  -0.089178   0.395631  -0.047399   0.010507   0.007088
     2  N   -0.089178   6.394648   0.376030  -0.026093   0.339993  -0.037654
     3  C    0.395631   0.376030   4.381340   0.389422  -0.042770  -0.005177
     4  C   -0.047399  -0.026093   0.389422   4.953532  -0.042139   0.437113
     5  C    0.010507   0.339993  -0.042770  -0.042139   4.643428  -0.033842
     6  C    0.007088  -0.037654  -0.005177   0.437113  -0.033842   4.783622
     7  C    0.002451  -0.025948  -0.038124  -0.019283   0.512462   0.360377
     8  H    0.027772   0.001432  -0.001565   0.000383   0.000485   0.000036
     9  H    0.004067   0.005729  -0.063924   0.494640  -0.001717  -0.067412
    10  H   -0.000489  -0.046158  -0.001371  -0.003013   0.456560   0.006951
    11  H   -0.000691  -0.002331   0.010794  -0.067367   0.010627   0.475390
    12  H    0.000043   0.009382  -0.001380   0.008874  -0.062502  -0.069351
    13  O   -0.033052  -0.028355  -0.002679  -0.000249   0.001934   0.000106
    14  H    0.003225   0.000132   0.000376   0.000107   0.000083  -0.000015
    15  H    0.001852   0.402686  -0.034009   0.002586  -0.008418   0.000201
               7          8          9         10         11         12
     1  O    0.002451   0.027772   0.004067  -0.000489  -0.000691   0.000043
     2  N   -0.025948   0.001432   0.005729  -0.046158  -0.002331   0.009382
     3  C   -0.038124  -0.001565  -0.063924  -0.001371   0.010794  -0.001380
     4  C   -0.019283   0.000383   0.494640  -0.003013  -0.067367   0.008874
     5  C    0.512462   0.000485  -0.001717   0.456560   0.010627  -0.062502
     6  C    0.360377   0.000036  -0.067412   0.006951   0.475390  -0.069351
     7  C    4.918944  -0.000000   0.010538  -0.055698  -0.075688   0.493501
     8  H   -0.000000   0.427957   0.000049   0.000046   0.000001  -0.000002
     9  H    0.010538   0.000049   0.648229   0.000208  -0.020482   0.000277
    10  H   -0.055698   0.000046   0.000208   0.634074  -0.000532  -0.012415
    11  H   -0.075688   0.000001  -0.020482  -0.000532   0.704493  -0.017488
    12  H    0.493501  -0.000002   0.000277  -0.012415  -0.017488   0.681949
    13  O   -0.000124   0.312326   0.000026  -0.000061  -0.000003   0.000010
    14  H    0.000013  -0.012630  -0.000003  -0.000049   0.000001  -0.000001
    15  H    0.000280  -0.005441  -0.000562  -0.003875   0.000293  -0.000302
              13         14         15
     1  O   -0.033052   0.003225   0.001852
     2  N   -0.028355   0.000132   0.402686
     3  C   -0.002679   0.000376  -0.034009
     4  C   -0.000249   0.000107   0.002586
     5  C    0.001934   0.000083  -0.008418
     6  C    0.000106  -0.000015   0.000201
     7  C   -0.000124   0.000013   0.000280
     8  H    0.312326  -0.012630  -0.005441
     9  H    0.000026  -0.000003  -0.000562
    10  H   -0.000061  -0.000049  -0.003875
    11  H   -0.000003   0.000001   0.000293
    12  H    0.000010  -0.000001  -0.000302
    13  O    7.878363   0.345361   0.032551
    14  H    0.345361   0.424820  -0.000938
    15  H    0.032551  -0.000938   0.460573
 Mulliken charges:
               1
     1  O   -0.659741
     2  N   -0.274317
     3  C    0.637407
     4  C   -0.081115
     5  C    0.215308
     6  C    0.142569
     7  C   -0.083702
     8  H    0.249152
     9  H   -0.009664
    10  H    0.025824
    11  H   -0.017015
    12  H   -0.030595
    13  O   -0.506154
    14  H    0.239519
    15  H    0.152525
 Sum of Mulliken charges =  -0.00000
 Mulliken charges with hydrogens summed into heavy atoms:
               1
     1  O   -0.659741
     2  N   -0.121792
     3  C    0.637407
     4  C   -0.090779
     5  C    0.241132
     6  C    0.125554
     7  C   -0.114297
    13  O   -0.017483
 Electronic spatial extent (au):  <R**2>=           1078.7549
 Charge=             -0.0000 electrons
 Dipole moment (field-independent basis, Debye):
    X=             -2.3002    Y=             -2.1177    Z=              1.0895  Tot=              3.3110
 Quadrupole moment (field-independent basis, Debye-Ang):
   XX=            -41.2516   YY=            -45.2885   ZZ=            -48.5944
   XY=             -2.0045   XZ=              4.6529   YZ=             -0.8609
 Traceless Quadrupole moment (field-independent basis, Debye-Ang):
   XX=              3.7932   YY=             -0.2436   ZZ=             -3.5495
   XY=             -2.0045   XZ=              4.6529   YZ=             -0.8609
 Octapole moment (field-independent basis, Debye-Ang**2):
  XXX=             24.9948  YYY=            -11.2574  ZZZ=              0.7152  XYY=             -5.5204
  XXY=              0.1065  XXZ=             18.4032  XZZ=             10.7560  YZZ=              0.6078
  YYZ=              0.5869  XYZ=             -3.2449
 Hexadecapole moment (field-independent basis, Debye-Ang**3):
 XXXX=           -758.7181 YYYY=           -344.8744 ZZZZ=            -49.5144 XXXY=             -4.6924
 XXXZ=             74.6372 YYYX=            -12.8627 YYYZ=             -0.8310 ZZZX=              3.4920
 ZZZY=             -0.5530 XXYY=           -215.6709 XXZZ=           -170.4271 YYZZ=            -74.4588
 XXYZ=            -12.5149 YYXZ=              2.7239 ZZXY=             -2.0631
 N-N= 3.568539014902D+02 E-N=-1.649871513927D+03  KE= 3.985612171560D+02
 No NMR shielding tensors so no spin-rotation constants.
 Leave Link  601 at Fri Aug 27 00:28:43 2021, MaxMem= 17179869184 cpu:        54.1
 (Enter /public3/home/sc51754/softwares/g09e01/l701.exe)
 Compute integral first derivatives.
 ... and contract with generalized density number  0.
 Leave Link  701 at Fri Aug 27 00:28:43 2021, MaxMem= 17179869184 cpu:        39.8
 (Enter /public3/home/sc51754/softwares/g09e01/l702.exe)
 L702 exits ... SP integral derivatives will be done elsewhere.
 Leave Link  702 at Fri Aug 27 00:28:44 2021, MaxMem= 17179869184 cpu:         0.3
 (Enter /public3/home/sc51754/softwares/g09e01/l703.exe)
 Compute integral first derivatives, UseDBF=F ICtDFT=           0.
 Integral derivatives from FoFJK, PRISM(SPDF).
 Calling FoFJK, ICntrl=      2527 FMM=F ISym2X=0 I1Cent= 0 IOpClX= 0 NMat=1 NMatS=1 NMatT=0.
 FoFJK:  IHMeth= 1 ICntrl=    2527 DoSepK=F KAlg= 0 I1Cent=   0 FoldK=F
 IRaf=         0 NMat=   1 IRICut=       1 DoRegI=T DoRafI=F ISym2E= 0.
 FoFCou: FMM=F IPFlag=           0 FMFlag=      100000 FMFlg1=         800
         NFxFlg=           0 DoJE=F BraDBF=F KetDBF=F FulRan=T
         wScrn=  0.000000 ICntrl=    2527 IOpCl=  0 I1Cent=           0 NGrid=           0
         NMat0=    1 NMatS0=      1 NMatT0=    0 NMatD0=    1 NMtDS0=    0 NMtDT0=    0
 Symmetry not used in FoFCou.
 Leave Link  703 at Fri Aug 27 00:28:47 2021, MaxMem= 17179869184 cpu:       203.3
 (Enter /public3/home/sc51754/softwares/g09e01/l716.exe)
 Dipole        =-9.04974728D-01-8.33166748D-01 4.28647407D-01
 ***** Axes restored to original set *****
 -------------------------------------------------------------------
 Center     Atomic                   Forces (Hartrees/Bohr)
 Number     Number              X              Y              Z
 -------------------------------------------------------------------
      1        8          -0.005894375   -0.003700221   -0.000000608
      2        7          -0.001423130   -0.002619201   -0.000089022
      3        6           0.003947025    0.006329144   -0.000003275
      4        6           0.000940189   -0.003287416   -0.000011004
      5        6           0.000375150    0.001901937    0.000028965
      6        6           0.002106790   -0.002105428    0.000017820
      7        6           0.000688025    0.002949656   -0.000010847
      8        1           0.003163688   -0.003873835    0.001021782
      9        1           0.000098019   -0.001138949   -0.000001033
     10        1           0.000014691    0.000629334   -0.000003594
     11        1           0.000500088   -0.000355065   -0.000005787
     12        1           0.001149235    0.000689092    0.000010715
     13        8           0.000315955    0.002018138    0.002042973
     14        1          -0.004737219    0.001616059   -0.003105934
     15        1          -0.001244130    0.000946755    0.000108849
 -------------------------------------------------------------------
 Cartesian Forces:  Max     0.006329144 RMS     0.002220602
 Leave Link  716 at Fri Aug 27 00:28:47 2021, MaxMem= 17179869184 cpu:         0.4
 (Enter /public3/home/sc51754/softwares/g09e01/l103.exe)

 GradGradGradGradGradGradGradGradGradGradGradGradGradGradGradGradGradGrad
 Berny optimization.
 FormGI is forming the generalized inverse of G from B-inverse, IUseBI=4.
 Internal  Forces:  Max     0.006739201 RMS     0.001582911
 Search for a local minimum.
 Step number   1 out of a maximum of   83
 All quantities printed in internal units (Hartrees-Bohrs-Radians)
 RMS Force = .15829D-02 SwitMx=.10000D-02 MixMth= 1
 Mixed Optimization -- RFO/linear search
 Second derivative matrix not updated -- first step.
 ITU=  0
     Eigenvalues ---    0.00646   0.00900   0.01671   0.02019   0.02045
     Eigenvalues ---    0.02138   0.02190   0.02305   0.02392   0.02435
     Eigenvalues ---    0.02516   0.04986   0.06334   0.06909   0.09520
     Eigenvalues ---    0.16000   0.16000   0.16000   0.16000   0.19047
     Eigenvalues ---    0.20437   0.21968   0.22000   0.22256   0.23654
     Eigenvalues ---    0.35693   0.35983   0.36053   0.36229   0.38136
     Eigenvalues ---    0.40185   0.42590   0.44184   0.49041   0.49982
     Eigenvalues ---    0.52121   0.53321   0.55542   0.84771
 RFO step:  Lambda=-4.20834676D-04 EMin= 6.46442552D-03
 Linear search not attempted -- first point.
 Iteration  1 RMS(Cart)=  0.00792052 RMS(Int)=  0.00003511
 Iteration  2 RMS(Cart)=  0.00002891 RMS(Int)=  0.00000942
 Iteration  3 RMS(Cart)=  0.00000000 RMS(Int)=  0.00000942
 ITry= 1 IFail=0 DXMaxC= 4.03D-02 DCOld= 1.00D+10 DXMaxT= 3.00D-01 DXLimC= 3.00D+00 Rises=F
 Variable       Old X    -DE/DX   Delta X   Delta X   Delta X     New X
                                 (Linear)    (Quad)   (Total)
    R1        2.33752  -0.00674   0.00000  -0.00814  -0.00815   2.32937
    R2        3.44231   0.00013   0.00000  -0.00242  -0.00241   3.43989
    R3        2.63700   0.00007   0.00000   0.00011   0.00010   2.63710
    R4        2.56181  -0.00341   0.00000  -0.00619  -0.00619   2.55562
    R5        1.92716  -0.00278   0.00000  -0.00544  -0.00544   1.92172
    R6        2.72061  -0.00372   0.00000  -0.00935  -0.00935   2.71126
    R7        2.57451  -0.00266   0.00000  -0.00520  -0.00520   2.56930
    R8        2.03999  -0.00115   0.00000  -0.00319  -0.00319   2.03680
    R9        2.56943  -0.00260   0.00000  -0.00492  -0.00492   2.56451
   R10        2.04108  -0.00061   0.00000  -0.00169  -0.00169   2.03939
   R11        2.67927  -0.00438   0.00000  -0.01045  -0.01045   2.66882
   R12        2.04565  -0.00060   0.00000  -0.00169  -0.00169   2.04396
   R13        2.03725  -0.00133   0.00000  -0.00366  -0.00366   2.03359
   R14        1.85494  -0.00473   0.00000  -0.00939  -0.00939   1.84555
   R15        1.81354  -0.00562   0.00000  -0.01012  -0.01012   1.80342
   R16        3.72662  -0.00148   0.00000  -0.02229  -0.02229   3.70434
    A1        1.92766   0.00032   0.00000  -0.00440  -0.00441   1.92325
    A2        2.17565   0.00048   0.00000   0.00201   0.00200   2.17766
    A3        2.00244  -0.00037   0.00000  -0.00030  -0.00031   2.00213
    A4        2.10509  -0.00011   0.00000  -0.00171  -0.00170   2.10339
    A5        2.09773   0.00083   0.00000   0.00122   0.00121   2.09894
    A6        2.19333   0.00070   0.00000   0.00361   0.00361   2.19694
    A7        1.99213  -0.00153   0.00000  -0.00482  -0.00482   1.98731
    A8        2.11557   0.00083   0.00000   0.00331   0.00331   2.11888
    A9        2.03563  -0.00041   0.00000  -0.00162  -0.00162   2.03400
   A10        2.13199  -0.00042   0.00000  -0.00168  -0.00168   2.13030
   A11        2.10801  -0.00021   0.00000  -0.00088  -0.00088   2.10713
   A12        2.02357  -0.00004   0.00000  -0.00049  -0.00049   2.02309
   A13        2.15160   0.00025   0.00000   0.00136   0.00137   2.15297
   A14        2.11704   0.00035   0.00000   0.00069   0.00069   2.11773
   A15        2.08601  -0.00003   0.00000   0.00058   0.00058   2.08659
   A16        2.08014  -0.00033   0.00000  -0.00127  -0.00127   2.07887
   A17        2.05796   0.00008   0.00000  -0.00030  -0.00030   2.05766
   A18        2.10191  -0.00020   0.00000  -0.00085  -0.00085   2.10106
   A19        2.12331   0.00012   0.00000   0.00115   0.00115   2.12446
   A20        2.65557  -0.00036   0.00000  -0.00025  -0.00024   2.65533
   A21        1.86229  -0.00153   0.00000  -0.01957  -0.01958   1.84271
   A22        1.36782   0.00050   0.00000   0.00314   0.00314   1.37095
   A23        2.34644  -0.00034   0.00000  -0.00217  -0.00222   2.34422
   A24        2.50984  -0.00097   0.00000   0.00014   0.00014   2.50998
    D1        0.03186   0.00021   0.00000   0.00098   0.00097   0.03283
    D2       -3.10924   0.00015   0.00000   0.00096   0.00095  -3.10828
    D3        0.03871   0.00006   0.00000   0.00105   0.00103   0.03974
    D4       -3.13629  -0.00008   0.00000  -0.00032  -0.00032  -3.13661
    D5        0.00485  -0.00002   0.00000  -0.00030  -0.00030   0.00455
    D6        0.00787   0.00003   0.00000   0.00093   0.00093   0.00880
    D7       -3.13417   0.00008   0.00000   0.00095   0.00095  -3.13322
    D8       -0.00292   0.00004   0.00000   0.00050   0.00050  -0.00242
    D9        3.13789   0.00003   0.00000   0.00027   0.00027   3.13816
   D10        3.13597  -0.00007   0.00000  -0.00081  -0.00081   3.13515
   D11       -0.00641  -0.00008   0.00000  -0.00105  -0.00104  -0.00745
   D12       -0.10803  -0.00035   0.00000  -0.00536  -0.00536  -0.11339
   D13        3.03601  -0.00025   0.00000  -0.00418  -0.00418   3.03184
   D14        3.13723   0.00005   0.00000   0.00001   0.00001   3.13724
   D15       -0.00200   0.00004   0.00000   0.00001   0.00000  -0.00199
   D16       -0.00389  -0.00001   0.00000  -0.00001  -0.00000  -0.00389
   D17        3.14007  -0.00001   0.00000  -0.00001  -0.00001   3.14005
   D18        0.00117   0.00002   0.00000   0.00011   0.00011   0.00128
   D19       -3.13978   0.00001   0.00000   0.00011   0.00011  -3.13968
   D20        3.14027   0.00003   0.00000   0.00012   0.00012   3.14038
   D21       -0.00068   0.00001   0.00000   0.00012   0.00012  -0.00057
   D22       -0.00027  -0.00003   0.00000  -0.00038  -0.00038  -0.00065
   D23        3.14059  -0.00001   0.00000  -0.00015  -0.00015   3.14044
   D24       -3.14103  -0.00002   0.00000  -0.00013  -0.00013  -3.14115
   D25       -0.00016  -0.00000   0.00000   0.00010   0.00010  -0.00006
   D26        0.00106   0.00000   0.00000   0.00009   0.00009   0.00115
   D27       -3.13980  -0.00002   0.00000  -0.00014  -0.00014  -3.13994
   D28       -3.14118   0.00002   0.00000   0.00009   0.00009  -3.14108
   D29        0.00115  -0.00000   0.00000  -0.00014  -0.00014   0.00102
   D30       -2.40197  -0.00001   0.00000  -0.00119  -0.00124  -2.40321
   D31       -0.07714  -0.00026   0.00000  -0.00277  -0.00275  -0.07988
   D32        0.12809   0.00046   0.00000   0.00572   0.00570   0.13379
   D33        1.90956  -0.00120   0.00000  -0.01868  -0.01867   1.89089
         Item               Value     Threshold  Converged?
 Maximum Force            0.006739     0.000450     NO 
 RMS     Force            0.001583     0.000300     NO 
 Maximum Displacement     0.040303     0.001800     NO 
 RMS     Displacement     0.007930     0.001200     NO 
 Predicted change in Energy=-2.107869D-04
 Lowest energy point so far.  Saving SCF results.
 GradGradGradGradGradGradGradGradGradGradGradGradGradGradGradGradGradGrad

 Leave Link  103 at Fri Aug 27 00:28:48 2021, MaxMem= 17179869184 cpu:        41.1
 (Enter /public3/home/sc51754/softwares/g09e01/l202.exe)
                          Input orientation:                          
 ---------------------------------------------------------------------
 Center     Atomic      Atomic             Coordinates (Angstroms)
 Number     Number       Type             X           Y           Z
 ---------------------------------------------------------------------
      1          8           0        1.260321    1.387148    0.006516
      2          7           0        0.249606   -0.657098    0.011828
      3          6           0        0.212515    0.737894    0.006573
      4          6           0       -1.114521    1.283252    0.001013
      5          6           0       -0.840370   -1.457624    0.006817
      6          6           0       -2.210876    0.479171   -0.003458
      7          6           0       -2.089768   -0.927906   -0.001281
      8          1           0        2.693947    0.266485   -0.042185
      9          1           0       -1.193435    2.358185   -0.001688
     10          1           0       -0.645923   -2.519161    0.008688
     11          1           0       -3.197495    0.922385   -0.009398
     12          1           0       -2.953210   -1.570163   -0.006306
     13          8           0        3.092739   -0.623836   -0.087877
     14          1           0        3.812111   -0.614951    0.539154
     15          1           0        1.184313   -1.057516    0.023536
 ---------------------------------------------------------------------
                    Distance matrix (angstroms):
                    1          2          3          4          5
     1  O    0.000000
     2  N    2.280464   0.000000
     3  C    1.232651   1.395495   0.000000
     4  C    2.377121   2.371902   1.434737   0.000000
     5  C    3.536330   1.352374   2.434926   2.754558   0.000000
     6  C    3.587999   2.710224   2.437183   1.359618   2.372670
     7  C    4.072178   2.355033   2.841735   2.416678   1.357078
     8  H    1.820313   2.613566   2.526284   3.942095   3.932728
     9  H    2.638920   3.342825   2.145252   1.077829   3.832117
    10  H    4.346611   2.066219   3.368283   3.831186   1.079201
    11  H    4.482007   3.791797   3.415034   2.114028   3.349738
    12  H    5.147786   3.330472   3.917793   3.394526   2.115875
    13  O    2.722264   2.845075   3.187306   4.620165   4.021631
    14  H    3.286904   3.601568   3.882129   5.307022   4.758053
    15  H    2.445904   1.016931   2.041611   3.280906   2.063906
                    6          7          8          9         10
     6  C    0.000000
     7  C    1.412281   0.000000
     8  H    4.909585   4.930738   0.000000
     9  H    2.136793   3.406143   4.414588   0.000000
    10  H    3.382191   2.148693   4.349385   4.907992   0.000000
    11  H    1.081615   2.156549   5.927932   2.465327   4.284284
    12  H    2.179641   1.076127   5.938429   4.304503   2.494873
    13  O    5.417756   5.192142   0.976624   5.222180   4.192753
    14  H    6.145560   5.934829   1.537913   5.847011   4.876627
    15  H    3.726855   3.276740   2.009053   4.161891   2.342305
                   11         12         13         14         15
    11  H    0.000000
    12  H    2.504492   0.000000
    13  O    6.477963   6.120105   0.000000
    14  H    7.197145   6.854161   0.954329   0.000000
    15  H    4.808465   4.169268   1.960250   2.714231   0.000000
 Stoichiometry    C5H7NO2
 Framework group  C1[X(C5H7NO2)]
 Deg. of freedom    39
 Full point group                 C1      NOp   1
 RotChk:  IX=0 Diff= 8.46D-04
 Largest Abelian subgroup         C1      NOp   1
 Largest concise Abelian subgroup C1      NOp   1
                         Standard orientation:                         
 ---------------------------------------------------------------------
 Center     Atomic      Atomic             Coordinates (Angstroms)
 Number     Number       Type             X           Y           Z
 ---------------------------------------------------------------------
      1          8           0        1.260220    1.387352    0.006003
      2          7           0        0.249309   -0.656795    0.012215
      3          6           0        0.212351    0.738197    0.006186
      4          6           0       -1.114632    1.283678    0.000036
      5          6           0       -0.840742   -1.457220    0.007404
      6          6           0       -2.211062    0.479698   -0.004235
      7          6           0       -2.090088   -0.927389   -0.001259
      8          1           0        2.693750    0.266527   -0.041768
      9          1           0       -1.193443    2.358617   -0.003272
     10          1           0       -0.646396   -2.518775    0.009900
     11          1           0       -3.197637    0.923003   -0.010634
     12          1           0       -2.953589   -1.569566   -0.006122
     13          8           0        3.092467   -0.623857   -0.086884
     14          1           0        3.811703   -0.614695    0.540300
     15          1           0        1.183976   -1.057295    0.024348
 ---------------------------------------------------------------------
 Rotational constants (GHZ):      4.0368365      1.4076630      1.0454708
 Leave Link  202 at Fri Aug 27 00:28:48 2021, MaxMem= 17179869184 cpu:         5.5
 (Enter /public3/home/sc51754/softwares/g09e01/l301.exe)
 Basis read from rwf:  (5D, 7F)
 No pseudopotential information found on rwf file.
 There are   385 symmetry adapted cartesian basis functions of A   symmetry.
 There are   338 symmetry adapted basis functions of A   symmetry.
   338 basis functions,   566 primitive gaussians,   385 cartesian basis functions
    30 alpha electrons       30 beta electrons
       nuclear repulsion energy       357.8030087785 Hartrees.
 IExCor= 4134 DFT=T Ex+Corr=M06L ExCW=0 ScaHFX=  0.000000
 ScaDFX=  1.000000  1.000000  1.000000  1.000000 ScalE2=  1.000000  1.000000
 IRadAn=      0 IRanWt=     -1 IRanGd=            0 ICorTp=0 IEmpDi=  4
 NAtoms=   15 NActive=   15 NUniq=   15 SFac= 1.00D+00 NAtFMM=   60 NAOKFM=F Big=F
 Integral buffers will be    131072 words long.
 Raffenetti 2 integral format.
 Two-electron integral symmetry is turned on.
 No density basis found on file   724.
 Leave Link  301 at Fri Aug 27 00:28:48 2021, MaxMem= 17179869184 cpu:         0.9
 (Enter /public3/home/sc51754/softwares/g09e01/l302.exe)
 NPDir=0 NMtPBC=     1 NCelOv=     1 NCel=       1 NClECP=     1 NCelD=      1
         NCelK=      1 NCelE2=     1 NClLst=     1 CellRange=     0.0.
 One-electron integrals computed using PRISM.
 NBasis=   338 RedAO= T EigKep=  1.55D-04  NBF=   338
 NBsUse=   338 1.00D-06 EigRej= -1.00D+00 NBFU=   338
 Precomputing XC quadrature grid using
 IXCGrd= 4 IRadAn=           0 IRanWt=          -1 IRanGd=           0 AccXCQ= 0.00D+00.
 Generated NRdTot=       0 NPtTot=           0 NUsed=           0 NTot=          32
 NSgBfM=   385   385   385   385   385 MxSgAt=    15 MxSgA2=    15.
 Leave Link  302 at Fri Aug 27 00:28:49 2021, MaxMem= 17179869184 cpu:        46.2
 (Enter /public3/home/sc51754/softwares/g09e01/l303.exe)
 DipDrv:  MaxL=1.
 Leave Link  303 at Fri Aug 27 00:28:50 2021, MaxMem= 17179869184 cpu:        12.8
 (Enter /public3/home/sc51754/softwares/g09e01/l401.exe)
 Initial guess from the checkpoint file:  "PY_H2O_M06L_PC2_OPT_FREQ.chk"
 B after Tr=     0.000000    0.000000    0.000000
         Rot=    1.000000    0.000123    0.000009    0.000291 Ang=   0.04 deg.
 Guess basis will be translated and rotated to current coordinates.
 JPrj=2 DoOrth=T DoCkMO=T.
 Generating alternative initial guess.
 ExpMin= 7.41D-02 ExpMax= 1.48D+04 ExpMxC= 5.05D+02 IAcc=2 IRadAn=         4 AccDes= 0.00D+00
 Harris functional with IExCor= 1009 and IRadAn=       4 diagonalized for initial guess.
 HarFok:  IExCor= 1009 AccDes= 0.00D+00 IRadAn=         4 IDoV= 1 UseB2=F ITyADJ=14
 ICtDFT=  3500011 ScaDFX=  1.000000  1.000000  1.000000  1.000000
 FoFCou: FMM=F IPFlag=           0 FMFlag=      100000 FMFlg1=           0
         NFxFlg=           0 DoJE=T BraDBF=F KetDBF=T FulRan=T
         wScrn=  0.000000 ICntrl=     500 IOpCl=  0 I1Cent=   200000004 NGrid=           0
         NMat0=    1 NMatS0=      1 NMatT0=    0 NMatD0=    1 NMtDS0=    0 NMtDT0=    0
 Petite list used in FoFCou.
 Harris En= -399.819067327999    
 Leave Link  401 at Fri Aug 27 00:28:51 2021, MaxMem= 17179869184 cpu:        77.3
 (Enter /public3/home/sc51754/softwares/g09e01/l502.exe)
 Closed shell SCF:
 Using DIIS extrapolation, IDIIS=  1040.
 Integral symmetry usage will be decided dynamically.
 Keep J ints in memory in canonical form, NReq=1670404686.
 IVT=      490665 IEndB=      490665 NGot= 17179869184 MDV= 15538220534
 LenX= 15538220534 LenY= 15538071868
 Requested convergence on RMS density matrix=1.00D-08 within 128 cycles.
 Requested convergence on MAX density matrix=1.00D-06.
 Requested convergence on             energy=1.00D-06.
 No special actions if energy rises.
 FoFCou: FMM=F IPFlag=           0 FMFlag=           0 FMFlg1=           0
         NFxFlg=           0 DoJE=F BraDBF=F KetDBF=F FulRan=T
         wScrn=  0.000000 ICntrl=     600 IOpCl=  0 I1Cent=           0 NGrid=           0
         NMat0=    1 NMatS0=  57291 NMatT0=    0 NMatD0=    1 NMtDS0=    0 NMtDT0=    0
 Symmetry not used in FoFCou.
 Integral accuracy reduced to 1.0D-05 until final iterations.

 Cycle   1  Pass 0  IDiag  1:
 E= -400.063632106811    
 DIIS: error= 4.90D-04 at cycle   1 NSaved=   1.
 NSaved= 1 IEnMin= 1 EnMin= -400.063632106811     IErMin= 1 ErrMin= 4.90D-04
 ErrMax= 4.90D-04  0.00D+00 EMaxC= 1.00D-01 BMatC= 2.20D-04 BMatP= 2.20D-04
 IDIUse=3 WtCom= 9.95D-01 WtEn= 4.90D-03
 Coeff-Com:  0.100D+01
 Coeff-En:   0.100D+01
 Coeff:      0.100D+01
 Gap=     0.555 Goal=   None    Shift=    0.000
 RMSDP=5.29D-05 MaxDP=1.49D-03              OVMax= 2.89D-03

[...]
    A5        2.09788  -0.00001   0.00000  -0.00014  -0.00014   2.09774
    A6        2.20034   0.00001   0.00000   0.00015   0.00015   2.20050
    A7        1.98496  -0.00000   0.00000  -0.00001  -0.00001   1.98495
    A8        2.11989  -0.00000   0.00000  -0.00006  -0.00006   2.11983
    A9        2.03520   0.00000   0.00000   0.00006   0.00006   2.03526
   A10        2.12809   0.00000   0.00000   0.00000   0.00000   2.12809
   A11        2.10796  -0.00001   0.00000  -0.00008  -0.00008   2.10787
   A12        2.02337  -0.00000   0.00000   0.00000   0.00000   2.02337
   A13        2.15186   0.00001   0.00000   0.00008   0.00008   2.15194
   A14        2.11865   0.00001   0.00000   0.00006   0.00006   2.11871
   A15        2.08495   0.00000   0.00000   0.00000   0.00000   2.08496
   A16        2.07958  -0.00001   0.00000  -0.00007  -0.00007   2.07952
   A17        2.05661   0.00000   0.00000   0.00001   0.00001   2.05662
   A18        2.10064   0.00000   0.00000   0.00005   0.00005   2.10069
   A19        2.12594  -0.00001   0.00000  -0.00006  -0.00006   2.12587
   A20        2.63788   0.00002   0.00000   0.00159   0.00159   2.63947
   A21        1.84103   0.00001   0.00000  -0.00023  -0.00023   1.84079
   A22        1.38403  -0.00003   0.00000  -0.00138  -0.00138   1.38265
   A23        2.28670  -0.00000   0.00000  -0.00217  -0.00217   2.28453
   A24        2.52581   0.00002   0.00000   0.00014   0.00014   2.52595
    D1        0.03832   0.00001   0.00000   0.00288   0.00288   0.04120
    D2       -3.10266   0.00001   0.00000   0.00286   0.00286  -3.09980
    D3        0.02295  -0.00000   0.00000  -0.00327  -0.00327   0.01968
    D4       -3.13653  -0.00000   0.00000   0.00020   0.00020  -3.13633
    D5        0.00452  -0.00000   0.00000   0.00022   0.00022   0.00474
    D6        0.00820  -0.00001   0.00000  -0.00116  -0.00116   0.00704
    D7       -3.13393  -0.00001   0.00000  -0.00114  -0.00114  -3.13507
    D8       -0.00258  -0.00000   0.00000  -0.00034  -0.00034  -0.00292
    D9        3.13772  -0.00000   0.00000  -0.00020  -0.00020   3.13751
   D10        3.13568   0.00001   0.00000   0.00110   0.00111   3.13679
   D11       -0.00720   0.00001   0.00000   0.00124   0.00124  -0.00596
   D12       -0.12316  -0.00000   0.00000  -0.00262  -0.00262  -0.12579
   D13        3.02143  -0.00001   0.00000  -0.00393  -0.00393   3.01750
   D14        3.13735   0.00000   0.00000  -0.00005  -0.00005   3.13731
   D15       -0.00200   0.00000   0.00000   0.00003   0.00003  -0.00197
   D16       -0.00366   0.00000   0.00000  -0.00007  -0.00007  -0.00372
   D17        3.14018  -0.00000   0.00000   0.00000   0.00000   3.14018
   D18        0.00104   0.00000   0.00000   0.00003   0.00003   0.00107
   D19       -3.13973  -0.00000   0.00000   0.00006   0.00006  -3.13967
   D20        3.14027   0.00000   0.00000  -0.00005  -0.00005   3.14022
   D21       -0.00050  -0.00000   0.00000  -0.00002  -0.00002  -0.00052
   D22       -0.00049   0.00000   0.00000   0.00027   0.00027  -0.00022
   D23        3.14039   0.00000   0.00000   0.00022   0.00022   3.14061
   D24       -3.14068   0.00000   0.00000   0.00012   0.00012  -3.14056
   D25        0.00019   0.00000   0.00000   0.00008   0.00008   0.00026
   D26        0.00118  -0.00000   0.00000  -0.00012  -0.00012   0.00106
   D27       -3.13968  -0.00000   0.00000  -0.00007  -0.00007  -3.13976
   D28       -3.14123  -0.00000   0.00000  -0.00015  -0.00015  -3.14138
   D29        0.00109  -0.00000   0.00000  -0.00011  -0.00011   0.00099
   D30       -2.33518   0.00001   0.00000   0.00338   0.00338  -2.33180
   D31       -0.06894  -0.00000   0.00000   0.00085   0.00085  -0.06809
   D32        0.14017   0.00001   0.00000   0.00265   0.00265   0.14283
   D33        1.90795  -0.00001   0.00000   0.00122   0.00122   1.90917
         Item               Value     Threshold  Converged?
 Maximum Force            0.000027     0.000450     YES
 RMS     Force            0.000008     0.000300     YES
 Maximum Displacement     0.004235     0.001800     NO 
 RMS     Displacement     0.001151     0.001200     YES
 Predicted change in Energy=-1.351371D-07
 GradGradGradGradGradGradGradGradGradGradGradGradGradGradGradGradGradGrad

 Leave Link  103 at Fri Aug 27 00:35:02 2021, MaxMem= 17179869184 cpu:        37.7
 (Enter /public3/home/sc51754/softwares/g09e01/l9999.exe)
 1\1\GINC-T1413\Freq\RM06L\Gen\C5H7N1O2\SC51754\27-Aug-2021\0\\#P Geom=
 AllCheck Guess=TCheck SCRF=Check GenChk RM06L/ChkBas Freq\\PY_H2O_M06L
 _PC2_OPT_FREQ\\0,1\O,1.2592822531,1.4007465503,0.0040460016\N,0.256522
 4836,-0.6489191385,0.0110655536\C,0.2140303649,0.749103091,0.005465533
 6\C,-1.1161451649,1.2862152522,0.0011299767\C,-0.8286886713,-1.4533793
 444,0.0074350949\C,-2.2090688564,0.475990738,-0.0017260333\C,-2.082105
 559,-0.9297304522,0.0007081379\H,2.6983824016,0.2663045565,-0.05592045
 07\H,-1.2029784362,2.3608144871,-0.0019017636\H,-0.6297834929,-2.51433
 21159,0.0089501896\H,-3.1973573805,0.9158069129,-0.0067222502\H,-2.941
 991947,-1.576968414,-0.0032706962\O,3.0774783874,-0.6321681056,-0.0996
 564653\H,3.7666388943,-0.6505018548,0.5610488172\H,1.1957377232,-1.042
 7161626,0.0212823544\\Version=EM64L-G09RevE.01\State=1-A\HF=-400.06451
 7\RMSD=2.256e-09\RMSF=2.127e-05\ZeroPoint=0.119463\Thermal=0.1274294\D
 ipole=-0.8574379,-0.846367,0.4498035\DipoleDeriv=-1.7067663,-0.563262,
 -0.0045934,-0.4560059,-0.8033962,-0.0031855,-0.0030315,-0.0042817,-0.3
 850204,-0.7908457,0.2336056,0.0011751,-0.6181725,-0.5085665,-0.0010232
 ,-0.0107415,0.0024469,-0.1624502,1.7480002,0.7838882,0.0042823,0.79471
 7,0.8897128,0.000845,-0.0030182,-0.004537,0.2403722,-0.6346722,-0.4300
 175,-0.0018251,0.0806203,0.008307,-0.0008429,0.0026383,-0.0019728,-0.1
 663548,0.6971831,-0.3285543,0.0039611,0.2728843,0.1136022,0.0026655,0.
 0004999,0.000912,-0.0017337,0.2671588,0.0754316,0.0017744,0.1228288,0.
 5670104,-0.0003444,0.0001334,-0.0011157,-0.0601245,-0.2455972,0.337279
 3,-0.0006406,0.0197969,-0.4228386,0.0010858,0.0027977,0.002948,-0.1907
 337,0.7476189,-0.1426515,-0.0250231,-0.4160683,0.330221,-0.039549,-0.0
 339411,-0.0347137,0.2246755,0.0482521,-0.0063982,-0.000471,0.0105763,-
 0.0474394,0.000351,0.000058,0.0007204,0.1339843,0.0501961,0.0265543,-0
 .0005511,-0.005219,-0.055343,0.0007038,-0.0013103,-0.0002001,0.1267062
 ,-0.0782193,0.0672521,-0.0008405,0.0664013,0.0456214,0.000282,-0.00164
 94,0.0003007,0.1081933,-0.0051113,-0.059884,-0.0007435,-0.0577265,0.00
 28467,-0.0001482,-0.0009378,-0.0004946,0.1490487,-1.0304998,0.1143587,
 0.100271,0.303007,-0.5547139,0.0868005,0.118511,0.0563591,-0.4610223,0
 .246435,-0.0011436,-0.0771116,-0.0491929,0.2713484,-0.0487344,-0.08003
 85,-0.0217347,0.2173219,0.6868677,-0.1064587,0.0003358,-0.0684466,0.16
 36276,0.0010942,0.0100302,0.0053632,0.2271375\Polar=99.895729,6.135769
 3,83.9837966,0.9467161,-0.2609593,43.0440472\PG=C01 [X(C5H7N1O2)]\NIma
 g=0\\0.55108295,0.27638112,0.29275940,-0.00075494,-0.00074640,0.036846
 04,0.01203488,-0.06676847,0.00035123,0.85368510,-0.04167956,-0.0676033
 2,0.00026129,-0.00963003,0.64115499,0.00069361,0.00019862,0.01719911,0
 .00546889,-0.00263296,0.08516813,-0.47458607,-0.22012062,0.00037447,-0
 .16600757,0.01025724,-0.00105301,0.87339242,-0.21453919,-0.22941933,0.
 00033901,0.05764498,-0.18829525,0.00038626,0.12906596,0.59240381,0.000
 12714,0.00014975,-0.07222617,-0.00073028,0.00049840,-0.06115619,0.0011
 4224,-0.00110744,0.19903242,-0.07501593,-0.00599004,-0.00005978,0.0237
 6564,0.04793733,0.00005791,-0.21301141,0.04701884,-0.00059958,0.678265
 81,-0.03097407,0.02086553,0.00003660,0.03748400,-0.02477702,0.00030556
 ,0.07598782,-0.14847060,0.00028704,0.07145284,0.76961337,-0.00006535,0
 .00026091,0.02050976,-0.00003838,0.00035704,0.00559319,-0.00057969,0.0
 0010472,-0.07735858,0.00176037,-0.00124984,0.11643278,-0.01297591,0.01
 362231,-0.00018158,-0.27168769,-0.06611470,-0.00092216,0.04574993,-0.0
 7341795,0.00043075,-0.04729460,-0.00527400,-0.00021197,0.75175180,-0.0
 0319084,-0.00182046,0.00002354,-0.11608890,-0.21268656,0.00006368,-0.0
 1765269,-0.04006746,-0.00000107,-0.00371429,-0.00067951,-0.00003205,-0
 .07389460,0.76002671,-0.00008181,0.00009425,0.00589071,-0.00089923,0.0
 0006793,-0.04623698,0.00026678,-0.00019597,-0.00358632,-0.00018753,0.0
 0000959,-0.00004667,0.00293059,-0.00105461,0.13976021,0.00238594,0.005
 25861,-0.00002400,-0.00681921,-0.00774750,0.00000159,-0.04455523,-0.00
 989944,-0.00013756,-0.32190356,-0.16273144,-0.00076221,0.01132024,0.03
 432812,-0.00001641,0.76644911,0.02067062,-0.00370734,0.00005959,-0.034
 31698,-0.03689919,-0.00010001,-0.03003940,0.05457024,-0.00021878,-0.11
 905461,-0.23462498,-0.00007055,0.07361126,-0.02319711,0.00036422,0.016
 04790,0.67006314,-0.00005195,0.00002704,0.00457051,0.00007875,0.000044
 48,-0.00510987,-0.00009542,-0.00010351,-0.00045041,-0.00097535,-0.0003
 7476,-0.05482323,-0.00011724,0.00022811,0.00745683,0.00280737,-0.00080
 812,0.14187404,0.00644644,-0.00619781,0.00004444,-0.07743862,-0.030972
 06,-0.00044687,-0.01966015,0.03534245,-0.00013299,0.03339541,-0.024875
 15,0.00016852,-0.36658532,0.13087835,-0.00149603,-0.12253327,-0.010443
 59,-0.00027473,0.79103284,-0.01294080,0.00008025,-0.00004615,0.0011418
 1,0.04064433,-0.00005963,0.02419175,-0.02677585,0.00013134,-0.04862893
 ,-0.03754361,-0.00015098,0.08700867,-0.16949346,0.00049411,0.04058179,
 -0.29339792,0.00044011,0.02789459,0.66304051,0.00006846,0.00000368,-0.
 00026744,-0.00042903,-0.00019640,0.01175312,-0.00011472,0.00016474,-0.
 00748737,0.00024764,-0.00006230,0.00712201,-0.00148365,0.00072181,-0.0
 6277962,-0.00038556,0.00016158,-0.06064071,0.00314322,-0.00042166,0.11
 489045,0.01264688,-0.00062025,-0.00092280,-0.00179955,0.00575845,-0.00
 037091,-0.01822412,-0.01127709,0.00016577,0.00447859,0.00160043,0.0001
 8986,0.00009704,-0.00023927,-0.00004710,-0.00035093,-0.00222914,0.0000
 1223,0.00000879,0.00165818,0.00003830,0.10124590,-0.01333297,-0.012664
 95,0.00096001,0.00214873,-0.00394821,0.00041233,0.01095884,0.01714847,
 -0.00003349,-0.00549411,-0.00246664,-0.00018328,-0.00196038,-0.0022051
 6,-0.00000834,0.00043501,0.00334065,-0.00002335,0.00137363,-0.00211114
 ,-0.00001165,-0.13834028,0.38812362,0.00036809,-0.00004115,-0.00803993
 ,-0.00066472,-0.00015660,-0.00076863,-0.00019479,-0.00017499,0.0006273
 6,0.00006005,0.00000288,0.00111873,0.00013047,0.00022050,-0.00020519,-
 0.00006113,-0.00011316,0.00013297,-0.00015192,0.00006135,0.00010819,0.
 01663429,0.01879054,0.04017671,0.00217904,-0.00247651,0.00000498,-0.00
 623220,0.00396702,-0.00006618,0.00394838,0.02978460,-0.00007620,-0.060
 58503,0.02602222,-0.00012754,-0.00242169,-0.00100774,-0.00000580,0.006
 33613,-0.02719604,0.00008952,-0.00361512,-0.00259873,-0.00004698,-0.00
 014762,0.00023787,-0.00001045,0.05836170,-0.00005740,0.00166749,-0.000
 00907,0.00285589,-0.00064231,0.00003451,-0.00445270,-0.00991788,0.0000
 3629,0.02794109,-0.34462421,0.00088658,0.00088278,0.00113851,0.0000019
 3,0.00414245,-0.01312010,0.00005313,-0.00385998,0.00127391,0.00000777,
 0.00000596,-0.00007686,0.00001209,-0.02725621,0.36453484,0.00002900,-0
 .00003258,-0.00237358,-0.00004290,0.00001107,0.00543815,-0.00003403,0.
 00015355,0.00228633,-0.00010765,0.00096170,-0.03370136,0.00001060,0.00
 000032,-0.00081262,-0.00001352,-0.00010389,0.00215374,-0.00005526,-0.0
 0000186,0.00953059,-0.00001387,0.00000881,-0.00001882,0.00018007,-0.00
 097610,0.02447592,-0.00105181,-0.00248179,0.00001948,0.00509099,-0.035
 42821,0.00006877,-0.00376124,0.00211217,-0.00006562,-0.00005098,-0.000
 74171,0.00000273,-0.07202508,0.06110453,-0.00021527,-0.00604930,0.0011
 8618,-0.00007457,0.00319821,0.02806976,-0.00003627,0.00035892,-0.00030
 051,0.00000935,0.00020497,0.00001416,0.00000612,0.07202434,-0.00088074
 ,-0.00228768,0.00002087,0.00090843,-0.02177950,0.00002785,-0.00284738,
 0.00604675,-0.00006407,0.00036630,0.00061915,0.00000201,0.05522440,-0.
 33194518,0.00042835,0.00283972,0.00048140,0.00001785,-0.00138973,-0.00
 572136,-0.00000165,0.00036563,-0.00023423,-0.00001174,0.00006209,-0.00
 010869,-0.00000122,-0.05478870,0.35401430,-0.00000651,-0.00001536,-0.0
 0022454,0.00008065,-0.00002440,0.00242901,-0.00002900,-0.00000591,0.00
 597015,-0.00000042,0.00000312,-0.00002376,-0.00028068,0.00027731,-0.03
 832397,-0.00009535,0.00002921,0.00809045,0.00002955,0.00017960,0.00621
 905,-0.00002236,0.00000817,-0.00003191,0.00000292,-0.00000155,-0.00139
 177,0.00026431,-0.00042835,0.02533033,-0.00251887,0.00031407,0.0000178
 2,0.00034924,-0.00040640,0.00000687,0.00005371,-0.00444461,-0.00006666
 ,-0.01998889,0.01287624,-0.00014525,0.00155298,0.00076775,-0.00002313,
 -0.29281484,0.10417252,-0.00141824,0.00062711,-0.00113168,-0.00002133,
 0.00031135,-0.00029126,-0.00001372,0.00126036,-0.00015867,0.00003389,-
 0.00004083,-0.00005037,0.00000358,0.31078503,-0.00103331,0.00059392,-0
 .00000104,-0.00121784,0.00031855,-0.00000767,-0.00280929,-0.00285070,0
 .00001831,-0.01857667,0.01182526,-0.00009046,-0.00019947,-0.00689384,0
 .00001514,0.10466033,-0.10623066,0.00061509,0.02972887,-0.00722388,0.0
 0014531,0.00006360,-0.00011309,-0.00000193,0.00035708,0.00095566,-0.00
 001426,0.00170552,-0.00052238,0.00001313,-0.11215944,0.10857163,-0.000
 01168,-0.00003267,-0.00236528,0.00001593,-0.00000808,-0.00090292,-0.00
 004382,0.00002697,0.01246119,-0.00003965,0.00008962,0.00651392,-0.0000
 2268,0.00000631,0.00528783,-0.00147818,0.00059894,-0.04222090,-0.00005
 174,0.00001069,0.00439669,-0.00002507,0.00002456,-0.00016429,0.0000263
 3,-0.00002013,-0.00580004,0.00000026,0.00000025,-0.00045631,0.00159057
 ,-0.00068002,0.02658101,0.00023536,-0.00028447,0.00000628,-0.00410388,
 0.00452848,-0.00008042,-0.00012150,0.00114902,-0.00001006,0.00085855,0
 .00144472,-0.00002097,-0.01780698,-0.02134601,-0.00008249,0.00731113,0
 .00481173,0.00003283,-0.24627619,-0.13859457,-0.00093332,0.00005701,0.
 00012179,-0.00002455,0.00023609,0.00032090,-0.00000464,0.00090623,0.00
 010272,0.00002876,0.00058175,-0.00050138,0.00001888,0.25863112,-0.0004
 3095,0.00054369,-0.00000276,0.00386560,-0.00003795,0.00003269,0.001379
 85,-0.00144147,0.00000845,0.00262369,-0.00523638,0.00002208,0.01163463
 ,0.01089816,0.00004980,-0.02667469,-0.01241108,-0.00013086,-0.14092089
 ,-0.16207757,-0.00053215,0.00005686,-0.00013620,0.00000924,-0.00136556
 ,-0.00066598,-0.00000131,-0.00051254,0.00065364,-0.00001111,0.00025733
 ,0.00137118,-0.00000093,0.14957280,0.16786752,0.00000529,-0.00001740,-
 0.00064156,-0.00008474,0.00000565,0.00777852,-0.00000214,0.00001781,-0
 .00037117,-0.00002199,0.00002385,0.00438625,-0.00007535,-0.00012093,-0
 .00150770,0.00007838,0.00006376,-0.00030959,-0.00097216,-0.00054874,-0
 .02830575,0.00000446,-0.00000292,0.00002350,-0.00000230,0.00000528,0.0
 0067930,0.00002768,-0.00000116,-0.00466990,0.00001643,-0.00000625,-0.0
 0254577,0.00103722,0.00056482,0.02374939,-0.01132459,0.01055195,0.0000
 8833,-0.01311619,-0.00454176,-0.00073896,0.00324325,0.00144119,0.00024
 632,-0.00099409,-0.00011716,0.00007818,0.00160096,0.00491688,-0.000056
 49,-0.00014763,-0.00021271,-0.00003114,-0.00202410,-0.00050733,0.00006
 235,-0.08748587,0.15965158,-0.00224898,-0.00015706,0.00017407,0.000010
 39,-0.00003613,-0.00038524,-0.00001469,-0.00024650,-0.00000752,-0.0000
 1264,-0.00042402,0.00012764,0.00001428,0.39119201,0.02216705,-0.001483
 20,0.00042189,-0.00179868,0.00547116,-0.00107001,-0.01115841,-0.013788
 22,0.00006747,0.00419669,0.00222261,-0.00005866,0.00149368,0.00089605,
 -0.00004156,-0.00028411,-0.00251090,0.00001035,-0.00080215,0.00171174,
 0.00002237,0.11751806,-0.38438767,-0.05191174,-0.00025666,0.00008166,-
 0.00000838,0.00037089,0.00025889,0.00001629,0.00024259,0.00010623,0.00
 001537,-0.00003381,0.00009491,0.00002801,-0.16381277,0.43810337,-0.001
 17523,0.00120257,0.00552293,-0.00300833,0.00004607,0.00316346,0.000549
 83,0.00005289,-0.00058484,-0.00016412,0.00002460,-0.00074452,-0.000280
 19,0.00021218,0.00030131,0.00006020,0.00006286,0.00001992,0.00000503,-
 0.00017778,-0.00020854,-0.01773546,-0.01426315,-0.03395275,0.00001691,
 -0.00000632,-0.00000397,-0.00002790,-0.00007168,0.00000672,0.00000818,
 0.00000085,0.00010569,-0.00002768,0.00000246,-0.00008716,0.27432429,0.
 03457637,0.29023595,0.00049791,0.00104655,0.00096193,-0.00110453,-0.00
 055001,0.00075394,-0.00062669,-0.00051005,-0.00021947,0.00015640,0.000
 10156,-0.00017979,-0.00022257,0.00041381,0.00005936,-0.00001170,-0.000
 10310,0.00001140,-0.00008646,-0.00008407,-0.00005266,-0.01276557,-0.00
 674538,-0.01522172,-0.00000734,0.00001647,-0.00000514,-0.00002095,-0.0
 0006352,-0.00000220,0.00001158,-0.00000471,0.00002624,-0.00003339,0.00
 002038,-0.00002039,-0.28089216,0.03052253,-0.25540351,0.29461341,0.002
 32247,-0.00201156,-0.00124581,-0.00218159,0.00045584,0.00052537,-0.000
 82207,-0.00100951,-0.00003811,0.00016377,0.00016890,0.00015683,0.00019
 692,0.00060077,0.00001342,0.00001378,-0.00011113,0.00000576,-0.0002533
 9,-0.00003484,-0.00000400,0.03164624,0.00240177,0.03277180,-0.00003632
 ,0.00001856,-0.00000051,-0.00000305,-0.00004651,-0.00003001,0.00000369
 ,0.00000380,-0.00002647,-0.00005370,0.00001966,-0.00001486,-0.00887240
 ,-0.04269734,-0.02241286,-0.02497820,0.04228826,0.00103772,-0.00095895
 ,-0.00007201,0.00282096,0.00005502,-0.00001124,-0.00021557,0.00008066,
 0.00000277,0.00008036,-0.00003336,-0.00002210,0.00006391,-0.00039615,0
 .00000230,0.00000725,0.00002872,-0.00000099,0.00015436,0.00008814,-0.0
 0001413,0.00165201,-0.00543516,-0.00105229,0.00000647,-0.00000821,0.00
 001089,0.00000184,0.00006138,0.00003084,0.00000725,-0.00000094,0.00000
 864,0.00004614,-0.00001047,0.00000605,-0.27387668,0.01520831,-0.258331
 93,0.27096857,-0.00816427,0.25931248,-0.01003623,-0.00223468,0.0000741
 7,-0.34661640,0.12462172,-0.00337307,0.01416630,0.01052912,-0.00007380
 ,-0.00207590,-0.00225631,-0.00006848,-0.02105309,0.00472491,-0.0001454
 4,0.00138314,0.00309535,0.00000655,0.00351043,-0.00606044,-0.00005646,
 0.00156918,-0.00846256,0.00138972,0.00063939,-0.00056881,0.00000693,0.
 00125266,0.00053640,0.00004142,0.00007682,-0.00000577,0.00000724,-0.00
 005127,0.00036586,-0.00000465,0.00081212,0.00163510,0.00285798,0.00049
 205,0.00285385,-0.00275457,0.35593080,-0.00248142,0.00448755,-0.000071
 60,0.12595306,-0.13137557,0.00188341,0.03806108,-0.00813301,0.00026593
 ,-0.00024189,-0.00689187,0.00004566,-0.02281353,0.01542853,-0.00023826
 ,-0.00097054,-0.00224501,-0.00000133,-0.00550315,-0.00237110,0.0000025
 4,-0.00596738,-0.00267039,0.00054290,0.00176288,-0.00051461,0.00000467
 ,-0.00030671,0.00057139,-0.00001016,0.00000824,0.00008832,-0.00000439,
 -0.00123822,0.00055786,0.00000307,0.00159356,-0.00407929,0.00075097,0.
 00091776,-0.00004669,-0.00051473,-0.12877374,0.13719387,-0.00018186,-0
 .00009230,-0.00432855,-0.00291881,0.00167150,-0.02433687,0.00002888,0.
 00026120,0.00284081,-0.00005026,-0.00002428,0.00504357,0.00000919,-0.0
 0014897,-0.00520011,0.00001913,0.00004563,-0.00074276,0.00003658,0.000
 00147,0.00568344,0.00044065,-0.00024310,0.00204635,0.00000825,-0.00001
 621,-0.00047275,0.00001909,0.00002131,-0.00295438,0.00000374,-0.000005
 26,-0.00089946,0.00001403,0.00000004,0.00181559,0.00215546,0.00272392,
 -0.00544227,-0.00167656,-0.00153627,0.00013072,0.00209248,-0.00265868,
 0.02681667\\-0.00000990,0.00003781,-0.00001715,0.00001838,0.00004221,-
 0.00003705,-0.00003107,-0.00003669,0.00001394,-0.00000393,-0.00000757,
 0.00001046,0.00001443,-0.00000249,0.00001094,-0.00001563,-0.00002603,0
 .00000838,0.00000554,-0.00001703,-0.00000102,0.00003074,0.00003666,0.0
 0001111,-0.00002376,-0.00001095,0.00000700,0.00001934,-0.00000596,-0.0
 0000872,-0.00000850,-0.00002731,0.00000598,0.00001661,-0.00003248,-0.0
 0000360,-0.00003600,0.00003631,-0.00000036,0.00001101,0.00003692,-0.00
 000631,0.00001272,-0.00002340,0.00000640\\\@


 NEVER TEACH A PIG TO SING.
 IT WASTES YOUR TIME AND ANNOYS THE PIG.
     -- SEEN ON A GREETING CARD
 Job cpu time:       0 days  1 hours 15 minutes 33.5 seconds.
 File lengths (MBytes):  RWF=    137 Int=      0 D2E=      0 Chk=      9 Scr=      1
 Normal termination of Gaussian 09 at Fri Aug 27 00:35:03 2021.
