 Entering Gaussian System, Link 0=g09
 AtFile(1): pc-2.gbs
            -H     0
            S    4   1.00
                  0.754230D+02           0.240650D-02
                  0.113500D+02           0.184870D-01
                  0.259930D+01           0.897420D-01
                  0.735130D+00           0.281110D+00
            S    1   1.00
                  0.231670D+00           0.100000D+01
            S    1   1.00
                  0.741470D-01           0.100000D+01
            P    1   1.00
                  0.160000D+01           0.100000D+01
            P    1   1.00
                  0.450000D+00           0.100000D+01
            D    1   1.00
                  0.125000D+01           0.100000D+01
            ****
            -C     0
            S    7   1.00
                  0.785710D+04           0.568250D-03
                  0.117870D+04           0.439150D-02
                  0.268320D+03           0.225040D-01
                  0.759480D+02           0.866530D-01
                  0.245590D+02           0.244050D+00
                  0.862120D+01           0.441480D+00
                  0.312780D+01           0.353320D+00
            S    7   1.00
                  0.117870D+04          -0.594920D-06
                  0.268320D+03          -0.627480D-04
                  0.759480D+02          -0.757730D-03
                  0.245590D+02          -0.733080D-02
                  0.862120D+01          -0.389320D-01
                  0.312780D+01          -0.889080D-01
                  0.822020D+00           0.216890D+00
            S    1   1.00
                  0.330170D+00           0.100000D+01
            S    1   1.00
                  0.114630D+00           0.100000D+01
            P    4   1.00
                  0.337750D+02           0.602940D-02
                  0.767660D+01           0.432280D-01
                  0.223570D+01           0.163010D+00
                  0.764470D+00           0.365040D+00
            P    1   1.00
                  0.262320D+00           0.100000D+01
            P    1   1.00
                  0.846380D-01           0.100000D+01
            D    1   1.00
                  0.140000D+01           0.100000D+01
            D    1   1.00
                  0.450000D+00           0.100000D+01
            F    1   1.00
                  0.950000D+00           0.100000D+01
            ****
            -N     0
            S    7   1.00
                  0.111010D+05           0.545700D-03
                  0.166530D+04           0.421810D-02
                  0.379080D+03           0.216450D-01
                  0.107300D+03           0.837760D-01
                  0.347470D+02           0.238810D+00
                  0.122490D+02           0.439940D+00
                  0.447430D+01           0.363640D+00
            S    7   1.00
                  0.166530D+04          -0.150060D-05
                  0.379080D+03          -0.587530D-04
                  0.107300D+03          -0.774530D-03
                  0.347470D+02          -0.721610D-02
                  0.122490D+02          -0.393380D-01
                  0.447430D+01          -0.906110D-01
                  0.124040D+01           0.198820D+00
            S    1   1.00
                  0.487430D+00           0.100000D+01
            S    1   1.00
                  0.164840D+00           0.100000D+01
            P    4   1.00
                  0.479340D+02           0.617060D-02
                  0.109990D+02           0.442600D-01
                  0.324720D+01           0.168250D+00
                  0.111140D+01           0.368480D+00
            P    1   1.00
                  0.379880D+00           0.100000D+01
            P    1   1.00
                  0.120680D+00           0.100000D+01
            D    1   1.00
                  0.180000D+01           0.100000D+01
            D    1   1.00
                  0.550000D+00           0.100000D+01
            F    1   1.00
                  0.102000D+01           0.100000D+01
            ****
            -O     0
            S    7   1.00
                  0.147820D+05           0.535190D-03
                  0.221730D+04           0.413750D-02
                  0.504740D+03           0.212450D-01
                  0.142870D+03           0.824530D-01
                  0.463000D+02           0.236710D+00
                  0.163370D+02           0.440390D+00
                  0.598280D+01           0.364650D+00
            S    7   1.00
                  0.221730D+04          -0.192750D-05
                  0.504740D+03          -0.579640D-04
                  0.142870D+03          -0.794940D-03
                  0.463000D+02          -0.731250D-02
                  0.163370D+02          -0.405740D-01
                  0.598280D+01          -0.915940D-01
                  0.167180D+01           0.209400D+00
            S    1   1.00
                  0.646620D+00           0.100000D+01
            S    1   1.00
                  0.216690D+00           0.100000D+01
            P    4   1.00
                  0.604240D+02           0.689490D-02
                  0.139350D+02           0.490050D-01
                  0.415310D+01           0.182550D+00
                  0.141580D+01           0.376330D+00
            P    1   1.00
                  0.475490D+00           0.100000D+01
            P    1   1.00
                  0.145290D+00           0.100000D+01
            D    1   1.00
                  0.220000D+01           0.100000D+01
            D    1   1.00
                  0.650000D+00           0.100000D+01
            F    1   1.00
                  0.110000D+01           0.100000D+01
            ****
 Initial command:
 /public3/home/sc51754/softwares/g09e01/l1.exe "./Gau-6556.inp" -scrdir="./"
 Entering Link 1 = /public3/home/sc51754/softwares/g09e01/l1.exe PID=      6558.
  
 Copyright (c) 1988,1990,1992,1993,1995,1998,2003,2009,2015,
            Gaussian, Inc.  All Rights Reserved.
  
 This is part of the Gaussian(R) 09 program.  It is based on
 the Gaussian(R) 03 system (copyright 2003, Gaussian, Inc.),
 the Gaussian(R) 98 system (copyright 1998, Gaussian, Inc.),
 the Gaussian(R) 94 system (copyright 1995, Gaussian, Inc.),
 the Gaussian 92(TM) system (copyright 1992, Gaussian, Inc.),
 the Gaussian 90(TM) system (copyright 1990, Gaussian, Inc.),
 the Gaussian 88(TM) system (copyright 1988, Gaussian, Inc.),
 the Gaussian 86(TM) system (copyright 1986, Carnegie Mellon
 University), and the Gaussian 82(TM) system (copyright 1983,
 Carnegie Mellon University). Gaussian is a federally registered
 trademark of Gaussian, Inc.
  
 This software contains proprietary and confidential information,
 including trade secrets, belonging to Gaussian, Inc.
  
 This software is provided under written license and may be
 used, copied, transmitted, or stored only in accord with that
 written license.
  
 The following legend is applicable only to US Government
 contracts under FAR:
  
                    RESTRICTED RIGHTS LEGEND
  
 Use, reproduction and disclosure by the US Government is
 subject to restrictions as set forth in subparagraphs (a)
 and (c) of the Commercial Computer Software - Restricted
 Rights clause in FAR 52.227-19.
  
 Gaussian, Inc.
 340 Quinnipiac St., Bldg. 40, Wallingford CT 06492
  
  
 ---------------------------------------------------------------
 Warning -- This program may not be used in any manner that
 competes with the business of Gaussian, Inc. or will provide
 assistance to any competitor of Gaussian, Inc.  The licensee
 of this program is prohibited from giving any competitor of
 Gaussian, Inc. access to this program.  By using this program,
 the user acknowledges that Gaussian, Inc. is engaged in the
 business of creating and licensing software in the field of
 computational chemistry and represents and warrants to the
 licensee that it is not a competitor of Gaussian, Inc. and that
 it will not use this program in any manner prohibited above.
 ---------------------------------------------------------------
  

 Cite this work as:
 Gaussian 09, Revision E.01,
 M. J. Frisch, G. W. Trucks, H. B. Schlegel, G. E. Scuseria, 
 M. A. Robb, J. R. Cheeseman, G. Scalmani, V. Barone, B. Mennucci, 
 G. A. Petersson, H. Nakatsuji, M. Caricato, X. Li, H. P. Hratchian, 
 A. F. Izmaylov, J. Bloino, G. Zheng, J. L. Sonnenberg, M. Hada, 
 M. Ehara, K. Toyota, R. Fukuda, J. Hasegawa, M. Ishida, T. Nakajima, 
 Y. Honda, O. Kitao, H. Nakai, T. Vreven, J. A. Montgomery, Jr., 
 J. E. Peralta, F. Ogliaro, M. Bearpark, J. J. Heyd, E. Brothers, 
 K. N. Kudin, V. N. Staroverov, T. Keith, R. Kobayashi, J. Normand, 
 K. Raghavachari, A. Rendell, J. C. Burant, S. S. Iyengar, J. Tomasi, 
 M. Cossi, N. Rega, J. M. Millam, M. Klene, J. E. Knox, J. B. Cross, 
 V. Bakken, C. Adamo, J. Jaramillo, R. Gomperts, R. E. Stratmann, 
 O. Yazyev, A. J. Austin, R. Cammi, C. Pomelli, J. W. Ochterski, 
 R. L. Martin, K. Morokuma, V. G. Zakrzewski, G. A. Voth, 
 P. Salvador, J. J. Dannenberg, S. Dapprich, A. D. Daniels, 
 O. Farkas, J. B. Foresman, J. V. Ortiz, J. Cioslowski, 
 and D. J. Fox, Gaussian, Inc., Wallingford CT, 2013.
 
 ******************************************
 Gaussian 09:  EM64L-G09RevE.01 30-Nov-2015
                28-Aug-2021 
 ******************************************
 %nprocshared=64
 Will use up to   64 processors via shared memory.
 %mem=128GB
 %chk=TST_H2O_M06L.chk
 ----------------------------------------------------------------------
 #p opt=(calcfc,qst3,MaxCycle=200,cartesian) freq M06L/gen SCF(novaracc
 ,noincfock) int=acc2e=12
 ----------------------------------------------------------------------
 1/5=1,6=200,10=4,14=-1,18=20,26=3,27=203,38=1/1,3;
 2/9=110,12=2,17=6,18=5,40=1/2;
 3/5=7,11=2,16=1,25=1,30=1,71=2,74=-53,140=1/1,2,3;
 4//1;
 5/5=100002,38=1,87=12/2;
 8/6=4,10=90,11=11,87=12/1;
 11/6=1,8=1,9=11,15=111,16=1,87=12/1,2,10;
 10/6=1,13=1,87=12/2;
 6/7=2,8=2,9=2,10=2,28=1/1;
 7/10=1,18=20,25=1,87=12/1,2,3,16;
 1/5=1,6=200,10=4,14=-1,18=20,26=3,27=203/3(2);
 2/9=110/2;
 99//99;
 2/9=110/2;
 3/5=7,6=1,11=2,16=1,25=1,30=1,71=1,74=-53,82=7/1,2,3;
 4/5=5,16=3,69=1/1;
 5/5=100002,38=1,87=12/2;
 7/87=12/1,2,3,16;
 1/5=1,6=200,14=-1,18=20,26=3,27=203/3(-5);
 2/9=110/2;
 6/7=2,8=2,9=2,10=2,19=2,28=1/1;
 99/9=1/99;
 Leave Link    1 at Sat Aug 28 13:44:50 2021, MaxMem= 17179869184 cpu:        15.4
 (Enter /public3/home/sc51754/softwares/g09e01/l101.exe)
 ------------------------
 HY_H2O_M06L_PC2_OPT_FREQ
 ------------------------
 Symbolic Z-matrix:
 Charge =  0 Multiplicity = 1
 O                     1.21375   1.43554  -0.00221 
 N                     0.30427  -0.67337  -0.00462 
 C                     0.13776   0.64869   0.00013 
 C                    -1.12335   1.2534    0.00754 
 C                    -0.78994  -1.44126  -0.00475 
 C                    -2.23246   0.44094   0.00831 
 C                    -2.07417  -0.94219   0.00175 
 H                     2.01672   0.87499  -0.01482 
 H                    -1.19485   2.32932   0.01083 
 H                    -0.61229  -2.50971  -0.011 
 H                    -3.2211    0.87803   0.01316 
 H                    -2.92231  -1.60796   0.00094 
 O                     3.09867  -0.57896  -0.08707 
 H                     3.56799  -0.84471   0.70192 
 H                     2.22953  -1.01653  -0.03241 
 
 Add virtual bond connecting atoms O13        and H8         Dist= 3.43D+00.
 Add virtual bond connecting atoms H15        and N2         Dist= 3.70D+00.
 Add virtual bond connecting atoms H15        and H8         Dist= 3.60D+00.
 Add atom     13 valence  3 ND=      2 dihedral       8     13     14     15
 ------------------------
 PY_H2O_M06L_PC2_OPT_FREQ
 ------------------------
 Symbolic Z-matrix:
 Charge =  0 Multiplicity = 1
 O                     1.25565   1.40107   0.00745 
 N                     0.25704  -0.65062   0.01327 
 C                     0.21172   0.74731   0.00703 
 C                    -1.11953   1.28172  -0.0002 
 C                    -0.82652  -1.45729   0.00778 
 C                    -2.2108    0.46927  -0.00493 
 C                    -2.08099  -0.93619  -0.00168 
 H                     2.69717   0.26953  -0.04917 
 H                    -1.20854   2.35614  -0.00383 
 H                    -0.62547  -2.51783   0.01012 
 H                    -3.19996   0.90708  -0.01209 
 H                    -2.93955  -1.58517  -0.00712 
 O                     3.07818  -0.62819  -0.09179 
 H                     3.76604  -0.64486   0.57031 
 H                     1.19703  -1.04251   0.02553 
 
 Add virtual bond connecting atoms H8         and O1         Dist= 3.46D+00.
 Add virtual bond connecting atoms O13        and H15        Dist= 3.65D+00.
 ------------
 TST_H2O_M06L
 ------------
 Symbolic Z-matrix:
 Charge =  0 Multiplicity = 1
 O                     1.39068   1.39625  -0.00564 
 N                     0.48119  -0.71266  -0.00805 
 C                     0.31469   0.6094   -0.00329 
 C                    -0.94643   1.21411   0.00411 
 C                    -0.61302  -1.48054  -0.00818 
 C                    -2.05553   0.40165   0.00488 
 C                    -1.89724  -0.98148  -0.00168 
 H                     2.06163   0.61617  -0.0262 
 H                    -1.01792   2.29003   0.0074 
 H                    -0.43536  -2.54899  -0.01442 
 H                    -3.04417   0.83874   0.00973 
 H                    -2.74539  -1.64725  -0.00249 
 O                     2.69991  -0.24156  -0.06883 
 H                     3.16922  -0.50731   0.72016 
 H                     1.83076  -0.67913  -0.01416 
 
 NAtoms=     15 NQM=       15 NQMF=       0 NMMI=      0 NMMIF=      0
                NMic=       0 NMicF=      0.
                    Isotopes and Nuclear Properties:
 (Nuclear quadrupole moments (NQMom) in fm**2, nuclear magnetic moments (NMagM)
  in nuclear magnetons)

  Atom         1           2           3           4           5           6           7           8           9          10
 IAtWgt=          16          14          12          12          12          12          12           1           1           1
 AtmWgt=  15.9949146  14.0030740  12.0000000  12.0000000  12.0000000  12.0000000  12.0000000   1.0078250   1.0078250   1.0078250
 NucSpn=           0           2           0           0           0           0           0           1           1           1
 AtZEff=   0.0000000   0.0000000   0.0000000   0.0000000   0.0000000   0.0000000   0.0000000   0.0000000   0.0000000   0.0000000
 NQMom=    0.0000000   2.0440000   0.0000000   0.0000000   0.0000000   0.0000000   0.0000000   0.0000000   0.0000000   0.0000000
 NMagM=    0.0000000   0.4037610   0.0000000   0.0000000   0.0000000   0.0000000   0.0000000   2.7928460   2.7928460   2.7928460
 AtZNuc=   8.0000000   7.0000000   6.0000000   6.0000000   6.0000000   6.0000000   6.0000000   1.0000000   1.0000000   1.0000000

  Atom        11          12          13          14          15
 IAtWgt=           1           1          16           1           1
 AtmWgt=   1.0078250   1.0078250  15.9949146   1.0078250   1.0078250
 NucSpn=           1           1           0           1           1
 AtZEff=   0.0000000   0.0000000   0.0000000   0.0000000   0.0000000
 NQMom=    0.0000000   0.0000000   0.0000000   0.0000000   0.0000000
 NMagM=    2.7928460   2.7928460   0.0000000   2.7928460   2.7928460
 AtZNuc=   1.0000000   1.0000000   8.0000000   1.0000000   1.0000000
 Leave Link  101 at Sat Aug 28 13:44:51 2021, MaxMem= 17179869184 cpu:        25.5
 (Enter /public3/home/sc51754/softwares/g09e01/l103.exe)

 GradGradGradGradGradGradGradGradGradGradGradGradGradGradGradGradGradGrad
 Berny optimization.
 Initialization pass.
                           ----------------------------
                           !    Initial Parameters    !
                           ! (Angstroms and Degrees)  !
 --------------------------                            --------------------------
 ! Name  Definition        TS        Reactant  Product Derivative Info.         !
 --------------------------------------------------------------------------------
 ! R1    R(1,3)             1.333     1.333     1.2317 calculate D2E/DX2 analyti!
 ! R2    R(1,8)             1.0291    0.9794    1.8335 calculate D2E/DX2 analyti!
 ! R3    R(2,3)             1.3325    1.3325    1.3987 calculate D2E/DX2 analyti!
 ! R4    R(2,5)             1.3368    1.3368    1.3509 calculate D2E/DX2 analyti!
 ! R5    R(2,15)            1.35      1.9558    1.0185 calculate D2E/DX2 analyti!
 ! R6    R(3,4)             1.3986    1.3986    1.4345 calculate D2E/DX2 analyti!
 ! R7    R(4,6)             1.3748    1.3748    1.3605 calculate D2E/DX2 analyti!
 ! R8    R(4,9)             1.0783    1.0783    1.0781 calculate D2E/DX2 analyti!
 ! R9    R(5,7)             1.3778    1.3778    1.3584 calculate D2E/DX2 analyti!
 ! R10   R(5,10)            1.0831    1.0831    1.0794 calculate D2E/DX2 analyti!
 ! R11   R(6,7)             1.3922    1.3922    1.4114 calculate D2E/DX2 analyti!
 ! R12   R(6,11)            1.081     1.081     1.0817 calculate D2E/DX2 analyti!
 ! R13   R(7,12)            1.0782    1.0782    1.0763 calculate D2E/DX2 analyti!
 ! R14   R(8,13)            1.07      1.8138    0.9762 calculate D2E/DX2 analyti!
 ! R15   R(8,15)            1.3158    1.9035    1.9944 calculate D2E/DX2 analyti!
 ! R16   R(13,14)           0.9557    0.9557    0.9549 calculate D2E/DX2 analyti!
 ! R17   R(13,15)           0.9746    0.9746    1.9298 calculate D2E/DX2 analyti!
 ! A1    A(3,1,8)          94.5228  108.9037  109.8018 calculate D2E/DX2 analyti!
 ! A2    A(3,2,5)         117.8817  117.8817  124.8071 calculate D2E/DX2 analyti!
 ! A3    A(3,2,15)         95.7561  107.2858  114.4895 calculate D2E/DX2 analyti!
 ! A4    A(5,2,15)        146.362   134.8276  120.7032 calculate D2E/DX2 analyti!
 ! A5    A(1,3,2)         118.9983  118.9983  120.1998 calculate D2E/DX2 analyti!
 ! A6    A(1,3,4)         118.2052  118.2052  126.0704 calculate D2E/DX2 analyti!
 ! A7    A(2,3,4)         122.7965  122.7965  113.7298 calculate D2E/DX2 analyti!
 ! A8    A(3,4,6)         118.158   118.158   121.4608 calculate D2E/DX2 analyti!
 ! A9    A(3,4,9)         119.4198  119.4198  116.6085 calculate D2E/DX2 analyti!
 ! A10   A(6,4,9)         122.4221  122.4221  121.9305 calculate D2E/DX2 analyti!
 ! A11   A(2,5,7)         123.7026  123.7026  120.777  calculate D2E/DX2 analyti!
 ! A12   A(2,5,10)        115.6195  115.6195  115.9305 calculate D2E/DX2 analyti!
 ! A13   A(7,5,10)        120.6779  120.6779  123.2925 calculate D2E/DX2 analyti!
 ! A14   A(4,6,7)         119.6948  119.6948  121.3897 calculate D2E/DX2 analyti!
 ! A15   A(4,6,11)        119.9249  119.9249  119.4589 calculate D2E/DX2 analyti!
 ! A16   A(7,6,11)        120.3803  120.3803  119.1515 calculate D2E/DX2 analyti!
 ! A17   A(5,7,6)         117.7663  117.7663  117.8351 calculate D2E/DX2 analyti!
 ! A18   A(5,7,12)        120.6316  120.6316  120.3577 calculate D2E/DX2 analyti!
 ! A19   A(6,7,12)        121.6022  121.6022  121.8072 calculate D2E/DX2 analyti!
 ! A20   A(1,8,13)        175.8004  161.5157  151.1392 calculate D2E/DX2 analyti!
 ! A21   A(1,8,15)        129.1701  131.3407   79.2493 calculate D2E/DX2 analyti!
 ! A22   A(8,13,14)       118.878   118.878   105.4831 calculate D2E/DX2 analyti!
 ! A23   A(8,13,15)        79.9623   79.9623   79.2991 calculate D2E/DX2 analyti!
 ! A24   A(14,13,15)      105.4724  105.4724  131.0182 calculate D2E/DX2 analyti!
 ! A25   A(2,15,8)        101.531    73.4691  116.1446 calculate D2E/DX2 analyti!
 ! A26   A(2,15,13)       154.5425  143.1185  144.7182 calculate D2E/DX2 analyti!
 ! D1    D(8,1,3,2)         0.8513    0.4558    2.1953 calculate D2E/DX2 analyti!
 ! D2    D(8,1,3,4)      -179.1496 -179.545  -177.7693 calculate D2E/DX2 analyti!
 ! D3    D(3,1,8,13)       15.7841    4.8525    1.3148 calculate D2E/DX2 analyti!
 ! D4    D(3,1,8,15)       -1.5992   -0.0901   -2.508  calculate D2E/DX2 analyti!
 ! D5    D(5,2,3,1)      -179.8735 -179.8735 -179.7101 calculate D2E/DX2 analyti!
 ! D6    D(5,2,3,4)         0.1274    0.1274    0.2587 calculate D2E/DX2 analyti!
 ! D7    D(15,2,3,1)       -0.0119   -0.5606    0.47   calculate D2E/DX2 analyti!
 ! D8    D(15,2,3,4)      179.989   179.4404 -179.5612 calculate D2E/DX2 analyti!
 ! D9    D(3,2,5,7)        -0.1001   -0.1001   -0.1479 calculate D2E/DX2 analyti!
 ! D10   D(3,2,5,10)      179.8645  179.8645  179.7778 calculate D2E/DX2 analyti!
 ! D11   D(15,2,5,7)     -179.8515 -179.1751  179.6615 calculate D2E/DX2 analyti!
 ! D12   D(15,2,5,10)       0.113     0.7894   -0.4128 calculate D2E/DX2 analyti!
 ! D13   D(3,2,15,8)       -0.6614    0.3499   -2.7638 calculate D2E/DX2 analyti!
 ! D14   D(3,2,15,13)      -7.1271   -4.2346   -7.0567 calculate D2E/DX2 analyti!
 ! D15   D(5,2,15,8)      179.1178  179.4937  177.4082 calculate D2E/DX2 analyti!
 ! D16   D(5,2,15,13)     172.6522  174.9092  173.1153 calculate D2E/DX2 analyti!
 ! D17   D(1,3,4,6)       179.9224  179.9224  179.7571 calculate D2E/DX2 analyti!
 ! D18   D(1,3,4,9)         0.0192    0.0192   -0.1144 calculate D2E/DX2 analyti!
 ! D19   D(2,3,4,6)        -0.0785   -0.0785   -0.2095 calculate D2E/DX2 analyti!
 ! D20   D(2,3,4,9)      -179.9817 -179.9817  179.919  calculate D2E/DX2 analyti!
 ! D21   D(3,4,6,7)        -0.002    -0.002     0.0597 calculate D2E/DX2 analyti!
 ! D22   D(3,4,6,11)     -179.9512 -179.9512 -179.8934 calculate D2E/DX2 analyti!
 ! D23   D(9,4,6,7)       179.8981  179.8981  179.9244 calculate D2E/DX2 analyti!
 ! D24   D(9,4,6,11)       -0.0511   -0.0511   -0.0287 calculate D2E/DX2 analyti!
 ! D25   D(2,5,7,6)         0.0239    0.0239   -0.0279 calculate D2E/DX2 analyti!
 ! D26   D(2,5,7,12)      179.9769  179.9769  179.9309 calculate D2E/DX2 analyti!
 ! D27   D(10,5,7,6)     -179.939  -179.939  -179.9479 calculate D2E/DX2 analyti!
 ! D28   D(10,5,7,12)       0.014     0.014     0.0109 calculate D2E/DX2 analyti!
 ! D29   D(4,6,7,5)         0.0277    0.0277    0.0675 calculate D2E/DX2 analyti!
 ! D30   D(4,6,7,12)     -179.9248 -179.9248 -179.8906 calculate D2E/DX2 analyti!
 ! D31   D(11,6,7,5)      179.9766  179.9766 -179.9792 calculate D2E/DX2 analyti!
 ! D32   D(11,6,7,12)       0.0242    0.0242    0.0626 calculate D2E/DX2 analyti!
 ! D33   D(1,8,13,14)    -120.7417 -109.5979 -133.7958 calculate D2E/DX2 analyti!
 ! D34   D(1,8,13,15)     -18.5156   -7.3717   -3.9502 calculate D2E/DX2 analyti!
 ! D35   D(1,8,15,2)        1.7465   -0.1752    3.2181 calculate D2E/DX2 analyti!
 ! D36   D(8,13,14,15)     86.9122   86.9122   89.1742 calculate D2E/DX2 analyti!
 ! D37   D(8,13,15,2)       7.9198    4.6844    8.0314 calculate D2E/DX2 analyti!
 ! D38   D(14,13,15,2)    125.3004  122.0651  109.3174 calculate D2E/DX2 analyti!
 --------------------------------------------------------------------------------
 Trust Radius=3.00D-01 FncErr=1.00D-07 GrdErr=1.00D-06
 Number of steps in this run=    100 maximum allowed number of steps=    100.
 Search for a saddle point of order  1.
 GradGradGradGradGradGradGradGradGradGradGradGradGradGradGradGradGradGrad

 Leave Link  103 at Sat Aug 28 13:44:51 2021, MaxMem= 17179869184 cpu:         0.8
 (Enter /public3/home/sc51754/softwares/g09e01/l202.exe)
                          Input orientation:                          
 ---------------------------------------------------------------------
 Center     Atomic      Atomic             Coordinates (Angstroms)
 Number     Number       Type             X           Y           Z
 ---------------------------------------------------------------------
      1          8           0        1.390681    1.396253   -0.005636
      2          7           0        0.481195   -0.712656   -0.008048
      3          6           0        0.314689    0.609402   -0.003294
      4          6           0       -0.946427    1.214106    0.004114
      5          6           0       -0.613016   -1.480544   -0.008176
      6          6           0       -2.055531    0.401648    0.004882
      7          6           0       -1.897241   -0.981478   -0.001679
      8          1           0        2.061635    0.616168   -0.026204
      9          1           0       -1.017922    2.290029    0.007401
     10          1           0       -0.435364   -2.548995   -0.014423
     11          1           0       -3.044173    0.838740    0.009734
     12          1           0       -2.745387   -1.647252   -0.002488
     13          8           0        2.699907   -0.241558   -0.068827
     14          1           0        3.169222   -0.507313    0.720162
     15          1           0        1.830765   -0.679130   -0.014165
 ---------------------------------------------------------------------
                    Distance matrix (angstroms):
                    1          2          3          4          5
     1  O    0.000000
     2  N    2.296664   0.000000
     3  C    1.333004   1.332510   0.000000
     4  C    2.344216   2.398054   1.398619   0.000000
     5  C    3.505819   1.336768   2.286599   2.715226   0.000000
     6  C    3.586883   2.770707   2.379322   1.374846   2.371427
     7  C    4.057592   2.393588   2.724617   2.392628   1.377804
     8  H    1.029143   2.064920   1.747109   3.067065   3.398571
     9  H    2.569119   3.356145   2.144871   1.078301   3.792283
    10  H    4.347355   2.052380   3.246256   3.797691   1.083137
    11  H    4.469786   3.851670   3.366708   2.131072   3.360048
    12  H    5.135172   3.359216   3.802177   3.379892   2.138885
    13  O    2.097734   2.268989   2.533316   3.926834   3.537545
    14  H    2.704358   2.792480   3.149412   4.518249   3.972780
    15  H    2.121547   1.350000   1.989703   3.361171   2.571841
                    6          7          8          9         10
     6  C    0.000000
     7  C    1.392170   0.000000
     8  H    4.122868   4.269165   0.000000
     9  H    2.154674   3.387631   3.505227   0.000000
    10  H    3.366245   2.143445   4.031550   4.874013   0.000000
    11  H    1.080965   2.151459   5.110783   2.492376   4.275888
    12  H    2.161931   1.078243   5.313294   4.299583   2.479816
    13  O    4.799306   4.656797   1.070000   4.498555   3.893218
    14  H    5.351250   5.139546   1.745285   5.085796   4.207270
    15  H    4.033824   3.740267   1.315766   4.114776   2.937982
                   11         12         13         14         15
    11  H    0.000000
    12  H    2.503913   0.000000
    13  O    5.845312   5.624198   0.000000
    14  H    6.397096   6.066653   0.955712   0.000000
    15  H    5.105832   4.677453   0.974610   1.536302   0.000000
 Stoichiometry    C5H7NO2
 Framework group  C1[X(C5H7NO2)]
 Deg. of freedom    39
 Full point group                 C1      NOp   1
 Largest Abelian subgroup         C1      NOp   1
 Largest concise Abelian subgroup C1      NOp   1
                         Standard orientation:                         
 ---------------------------------------------------------------------
 Center     Atomic      Atomic             Coordinates (Angstroms)
 Number     Number       Type             X           Y           Z
 ---------------------------------------------------------------------
      1          8           0        1.476226    1.198478   -0.007653
      2          7           0        0.305996   -0.777684   -0.010956
      3          6           0        0.308941    0.554799   -0.003031
      4          6           0       -0.865030    1.314904    0.010029
      5          6           0       -0.876958   -1.400232   -0.008702
      6          6           0       -2.068419    0.650039    0.013145
      7          6           0       -2.087283   -0.741968    0.003323
      8          1           0        2.042486    0.339475   -0.032122
      9          1           0       -0.799143    2.391175    0.015670
     10          1           0       -0.836610   -2.482580   -0.017664
     11          1           0       -2.993446    1.209258    0.022356
     12          1           0       -3.013190   -1.294511    0.004222
     13          8           0        2.566386   -0.592330   -0.078682
     14          1           0        3.000682   -0.917475    0.708117
     15          1           0        1.648849   -0.915987   -0.021793
 ---------------------------------------------------------------------
 Rotational constants (GHZ):      4.4265375      1.6807299      1.2216938
 Leave Link  202 at Sat Aug 28 13:44:52 2021, MaxMem= 17179869184 cpu:         5.9
 (Enter /public3/home/sc51754/softwares/g09e01/l301.exe)
 General basis read from cards:  (5D, 7F)
 Centers:       8      9     10     11     12     14     15
 S 4 1.00
     Exponent=  7.5423000000D+01 Coefficients=  2.4065000000D-03
     Exponent=  1.1350000000D+01 Coefficients=  1.8487000000D-02
     Exponent=  2.5993000000D+00 Coefficients=  8.9742000000D-02
     Exponent=  7.3513000000D-01 Coefficients=  2.8111000000D-01
 S 1 1.00
     Exponent=  2.3167000000D-01 Coefficients=  1.0000000000D+00
 S 1 1.00
     Exponent=  7.4147000000D-02 Coefficients=  1.0000000000D+00
 P 1 1.00
     Exponent=  1.6000000000D+00 Coefficients=  1.0000000000D+00
 P 1 1.00
     Exponent=  4.5000000000D-01 Coefficients=  1.0000000000D+00
 D 1 1.00
     Exponent=  1.2500000000D+00 Coefficients=  1.0000000000D+00
 ****
 Centers:       3      4      5      6      7
 S 7 1.00
     Exponent=  7.8571000000D+03 Coefficients=  5.6825000000D-04
     Exponent=  1.1787000000D+03 Coefficients=  4.3915000000D-03
     Exponent=  2.6832000000D+02 Coefficients=  2.2504000000D-02
     Exponent=  7.5948000000D+01 Coefficients=  8.6653000000D-02
     Exponent=  2.4559000000D+01 Coefficients=  2.4405000000D-01
     Exponent=  8.6212000000D+00 Coefficients=  4.4148000000D-01
     Exponent=  3.1278000000D+00 Coefficients=  3.5332000000D-01
 S 7 1.00
     Exponent=  1.1787000000D+03 Coefficients= -5.9492000000D-07
     Exponent=  2.6832000000D+02 Coefficients= -6.2748000000D-05
     Exponent=  7.5948000000D+01 Coefficients= -7.5773000000D-04
     Exponent=  2.4559000000D+01 Coefficients= -7.3308000000D-03
     Exponent=  8.6212000000D+00 Coefficients= -3.8932000000D-02
     Exponent=  3.1278000000D+00 Coefficients= -8.8908000000D-02
     Exponent=  8.2202000000D-01 Coefficients=  2.1689000000D-01
 S 1 1.00
     Exponent=  3.3017000000D-01 Coefficients=  1.0000000000D+00
 S 1 1.00
     Exponent=  1.1463000000D-01 Coefficients=  1.0000000000D+00
 P 4 1.00
     Exponent=  3.3775000000D+01 Coefficients=  6.0294000000D-03
     Exponent=  7.6766000000D+00 Coefficients=  4.3228000000D-02
     Exponent=  2.2357000000D+00 Coefficients=  1.6301000000D-01
     Exponent=  7.6447000000D-01 Coefficients=  3.6504000000D-01
 P 1 1.00
     Exponent=  2.6232000000D-01 Coefficients=  1.0000000000D+00
 P 1 1.00
     Exponent=  8.4638000000D-02 Coefficients=  1.0000000000D+00
 D 1 1.00
     Exponent=  1.4000000000D+00 Coefficients=  1.0000000000D+00
 D 1 1.00
     Exponent=  4.5000000000D-01 Coefficients=  1.0000000000D+00
 F 1 1.00
     Exponent=  9.5000000000D-01 Coefficients=  1.0000000000D+00
 ****
 Centers:       2
 S 7 1.00
     Exponent=  1.1101000000D+04 Coefficients=  5.4570000000D-04
     Exponent=  1.6653000000D+03 Coefficients=  4.2181000000D-03
     Exponent=  3.7908000000D+02 Coefficients=  2.1645000000D-02
     Exponent=  1.0730000000D+02 Coefficients=  8.3776000000D-02
     Exponent=  3.4747000000D+01 Coefficients=  2.3881000000D-01
     Exponent=  1.2249000000D+01 Coefficients=  4.3994000000D-01
     Exponent=  4.4743000000D+00 Coefficients=  3.6364000000D-01
 S 7 1.00
     Exponent=  1.6653000000D+03 Coefficients= -1.5006000000D-06
     Exponent=  3.7908000000D+02 Coefficients= -5.8753000000D-05
     Exponent=  1.0730000000D+02 Coefficients= -7.7453000000D-04
     Exponent=  3.4747000000D+01 Coefficients= -7.2161000000D-03
     Exponent=  1.2249000000D+01 Coefficients= -3.9338000000D-02
     Exponent=  4.4743000000D+00 Coefficients= -9.0611000000D-02
     Exponent=  1.2404000000D+00 Coefficients=  1.9882000000D-01
 S 1 1.00
     Exponent=  4.8743000000D-01 Coefficients=  1.0000000000D+00
 S 1 1.00
     Exponent=  1.6484000000D-01 Coefficients=  1.0000000000D+00
 P 4 1.00
     Exponent=  4.7934000000D+01 Coefficients=  6.1706000000D-03
     Exponent=  1.0999000000D+01 Coefficients=  4.4260000000D-02
     Exponent=  3.2472000000D+00 Coefficients=  1.6825000000D-01
     Exponent=  1.1114000000D+00 Coefficients=  3.6848000000D-01
 P 1 1.00
     Exponent=  3.7988000000D-01 Coefficients=  1.0000000000D+00
 P 1 1.00
     Exponent=  1.2068000000D-01 Coefficients=  1.0000000000D+00
 D 1 1.00
     Exponent=  1.8000000000D+00 Coefficients=  1.0000000000D+00
 D 1 1.00
     Exponent=  5.5000000000D-01 Coefficients=  1.0000000000D+00
 F 1 1.00
     Exponent=  1.0200000000D+00 Coefficients=  1.0000000000D+00
 ****
 Centers:       1     13
 S 7 1.00
     Exponent=  1.4782000000D+04 Coefficients=  5.3519000000D-04
     Exponent=  2.2173000000D+03 Coefficients=  4.1375000000D-03
     Exponent=  5.0474000000D+02 Coefficients=  2.1245000000D-02
     Exponent=  1.4287000000D+02 Coefficients=  8.2453000000D-02
     Exponent=  4.6300000000D+01 Coefficients=  2.3671000000D-01
     Exponent=  1.6337000000D+01 Coefficients=  4.4039000000D-01
     Exponent=  5.9828000000D+00 Coefficients=  3.6465000000D-01
 S 7 1.00
     Exponent=  2.2173000000D+03 Coefficients= -1.9275000000D-06
     Exponent=  5.0474000000D+02 Coefficients= -5.7964000000D-05
     Exponent=  1.4287000000D+02 Coefficients= -7.9494000000D-04
     Exponent=  4.6300000000D+01 Coefficients= -7.3125000000D-03
     Exponent=  1.6337000000D+01 Coefficients= -4.0574000000D-02
     Exponent=  5.9828000000D+00 Coefficients= -9.1594000000D-02
     Exponent=  1.6718000000D+00 Coefficients=  2.0940000000D-01
 S 1 1.00
     Exponent=  6.4662000000D-01 Coefficients=  1.0000000000D+00
 S 1 1.00
     Exponent=  2.1669000000D-01 Coefficients=  1.0000000000D+00
 P 4 1.00
     Exponent=  6.0424000000D+01 Coefficients=  6.8949000000D-03
     Exponent=  1.3935000000D+01 Coefficients=  4.9005000000D-02
     Exponent=  4.1531000000D+00 Coefficients=  1.8255000000D-01
     Exponent=  1.4158000000D+00 Coefficients=  3.7633000000D-01
 P 1 1.00
     Exponent=  4.7549000000D-01 Coefficients=  1.0000000000D+00
 P 1 1.00
     Exponent=  1.4529000000D-01 Coefficients=  1.0000000000D+00
 D 1 1.00
     Exponent=  2.2000000000D+00 Coefficients=  1.0000000000D+00
 D 1 1.00
     Exponent=  6.5000000000D-01 Coefficients=  1.0000000000D+00
 F 1 1.00
     Exponent=  1.1000000000D+00 Coefficients=  1.0000000000D+00
 ****
 Ernie: Thresh=  0.10000D-02 Tol=  0.10000D-05 Strict=F.
 Ernie:  8 primitive shells out of 263 were deleted.
 There are   385 symmetry adapted cartesian basis functions of A   symmetry.
 There are   338 symmetry adapted basis functions of A   symmetry.
   338 basis functions,   566 primitive gaussians,   385 cartesian basis functions
    30 alpha electrons       30 beta electrons
       nuclear repulsion energy       375.5492395017 Hartrees.
 IExCor= 4134 DFT=T Ex+Corr=M06L ExCW=0 ScaHFX=  0.000000
 ScaDFX=  1.000000  1.000000  1.000000  1.000000 ScalE2=  1.000000  1.000000
 IRadAn=      0 IRanWt=     -1 IRanGd=            0 ICorTp=0 IEmpDi=  4
 NAtoms=   15 NActive=   15 NUniq=   15 SFac= 1.00D+00 NAtFMM=   60 NAOKFM=F Big=F
 Integral buffers will be    131072 words long.
 Raffenetti 2 integral format.
 Two-electron integral symmetry is turned on.
 Leave Link  301 at Sat Aug 28 13:44:52 2021, MaxMem= 17179869184 cpu:        21.6
 (Enter /public3/home/sc51754/softwares/g09e01/l302.exe)
 NPDir=0 NMtPBC=     1 NCelOv=     1 NCel=       1 NClECP=     1 NCelD=      1
         NCelK=      1 NCelE2=     1 NClLst=     1 CellRange=     0.0.
 One-electron integrals computed using PRISM.
 NBasis=   338 RedAO= T EigKep=  1.43D-04  NBF=   338
 NBsUse=   338 1.00D-06 EigRej= -1.00D+00 NBFU=   338
 Precomputing XC quadrature grid using
 IXCGrd= 4 IRadAn=           0 IRanWt=          -1 IRanGd=           0 AccXCQ= 0.00D+00.
 Generated NRdTot=       0 NPtTot=           0 NUsed=           0 NTot=          32
 NSgBfM=   385   385   385   385   385 MxSgAt=    15 MxSgA2=    15.
 Leave Link  302 at Sat Aug 28 13:44:54 2021, MaxMem= 17179869184 cpu:        52.5
 (Enter /public3/home/sc51754/softwares/g09e01/l303.exe)
 DipDrv:  MaxL=1.
 Leave Link  303 at Sat Aug 28 13:44:54 2021, MaxMem= 17179869184 cpu:        12.1
 (Enter /public3/home/sc51754/softwares/g09e01/l401.exe)
 ExpMin= 7.41D-02 ExpMax= 1.48D+04 ExpMxC= 5.05D+02 IAcc=2 IRadAn=         4 AccDes= 0.00D+00
 Harris functional with IExCor= 1009 and IRadAn=       4 diagonalized for initial guess.
 HarFok:  IExCor= 1009 AccDes= 0.00D+00 IRadAn=         4 IDoV= 1 UseB2=F ITyADJ=14
 ICtDFT=  3500011 ScaDFX=  1.000000  1.000000  1.000000  1.000000
 FoFCou: FMM=F IPFlag=           0 FMFlag=      100000 FMFlg1=           0
         NFxFlg=           0 DoJE=T BraDBF=F KetDBF=T FulRan=T
         wScrn=  0.000000 ICntrl=     500 IOpCl=  0 I1Cent=   200000004 NGrid=           0
         NMat0=    1 NMatS0=      1 NMatT0=    0 NMatD0=    1 NMtDS0=    0 NMtDT0=    0
 Petite list used in FoFCou.
 Harris En= -399.741127216353    
 JPrj=0 DoOrth=F DoCkMO=F.
 Leave Link  401 at Sat Aug 28 13:44:55 2021, MaxMem= 17179869184 cpu:        56.8
 (Enter /public3/home/sc51754/softwares/g09e01/l502.exe)
 Closed shell SCF:
 Using DIIS extrapolation, IDIIS=  1040.
 Integral symmetry usage will be decided dynamically.
 Keep J ints in memory in canonical form, NReq=1670404686.
 IVT=      490665 IEndB=      490665 NGot= 17179869184 MDV= 15538220534
 LenX= 15538220534 LenY= 15538071868
 Requested convergence on RMS density matrix=1.00D-08 within 128 cycles.
 Requested convergence on MAX density matrix=1.00D-06.
 Requested convergence on             energy=1.00D-06.
 No special actions if energy rises.
 FoFCou: FMM=F IPFlag=           0 FMFlag=           0 FMFlg1=           0
         NFxFlg=           0 DoJE=F BraDBF=F KetDBF=F FulRan=T
         wScrn=  0.000000 ICntrl=     600 IOpCl=  0 I1Cent=           0 NGrid=           0
         NMat0=    1 NMatS0=  57291 NMatT0=    0 NMatD0=    1 NMtDS0=    0 NMtDT0=    0
 Symmetry not used in FoFCou.

 Cycle   1  Pass 1  IDiag  1:
 E= -399.760932401517    
 DIIS: error= 1.97D-02 at cycle   1 NSaved=   1.
 NSaved= 1 IEnMin= 1 EnMin= -399.760932401517     IErMin= 1 ErrMin= 1.97D-02
 ErrMax= 1.97D-02  0.00D+00 EMaxC= 1.00D-01 BMatC= 3.03D-01 BMatP= 3.03D-01
 IDIUse=3 WtCom= 8.03D-01 WtEn= 1.97D-01
 Coeff-Com:  0.100D+01
 Coeff-En:   0.100D+01
 Coeff:      0.100D+01
 Gap=     0.125 Goal=   None    Shift=    0.000
 GapD=    0.125 DampG=1.000 DampE=0.500 DampFc=0.5000 IDamp=-1.
 Damping current iteration by 5.00D-01
 RMSDP=3.37D-03 MaxDP=1.34D-01              OVMax= 2.34D-01

 Cycle   2  Pass 1  IDiag  1:
 E= -399.826991221856     Delta-E=       -0.066058820339 Rises=F Damp=T
 DIIS: error= 8.86D-03 at cycle   2 NSaved=   2.
 NSaved= 2 IEnMin= 2 EnMin= -399.826991221856     IErMin= 2 ErrMin= 8.86D-03
 ErrMax= 8.86D-03  0.00D+00 EMaxC= 1.00D-01 BMatC= 3.84D-02 BMatP= 3.03D-01
 IDIUse=3 WtCom= 9.11D-01 WtEn= 8.86D-02
 Coeff-Com:  0.155D+00 0.845D+00
 Coeff-En:   0.315D+00 0.685D+00
 Coeff:      0.169D+00 0.831D+00
 Gap=     0.182 Goal=   None    Shift=    0.000
 RMSDP=1.35D-03 MaxDP=3.70D-02 DE=-6.61D-02 OVMax= 2.46D-01

 Cycle   3  Pass 1  IDiag  1:
 E= -399.942554150331     Delta-E=       -0.115562928475 Rises=F Damp=F
 DIIS: error= 8.82D-03 at cycle   3 NSaved=   3.
 NSaved= 3 IEnMin= 3 EnMin= -399.942554150331     IErMin= 3 ErrMin= 8.82D-03
 ErrMax= 8.82D-03  0.00D+00 EMaxC= 1.00D-01 BMatC= 4.09D-02 BMatP= 3.84D-02
 IDIUse=3 WtCom= 9.12D-01 WtEn= 8.82D-02
 Coeff-Com:  0.995D-02 0.508D+00 0.482D+00
 Coeff-En:   0.000D+00 0.000D+00 0.100D+01
 Coeff:      0.907D-02 0.463D+00 0.528D+00
 Gap=     0.145 Goal=   None    Shift=    0.000
 RMSDP=7.09D-04 MaxDP=3.47D-02 DE=-1.16D-01 OVMax= 1.29D-01

 Cycle   4  Pass 1  IDiag  1:
 E= -399.964791566312     Delta-E=       -0.022237415981 Rises=F Damp=F
 DIIS: error= 6.65D-03 at cycle   4 NSaved=   4.
 NSaved= 4 IEnMin= 4 EnMin= -399.964791566312     IErMin= 4 ErrMin= 6.65D-03
 ErrMax= 6.65D-03  0.00D+00 EMaxC= 1.00D-01 BMatC= 1.70D-02 BMatP= 3.84D-02
 IDIUse=3 WtCom= 9.34D-01 WtEn= 6.65D-02
 Coeff-Com: -0.334D-01 0.127D+00 0.403D+00 0.502D+00
 Coeff-En:   0.000D+00 0.000D+00 0.341D+00 0.659D+00
 Coeff:     -0.312D-01 0.119D+00 0.399D+00 0.513D+00
 Gap=     0.148 Goal=   None    Shift=    0.000
 RMSDP=3.33D-04 MaxDP=1.68D-02 DE=-2.22D-02 OVMax= 6.79D-02

 Cycle   5  Pass 1  IDiag  1:
 E= -399.980090937665     Delta-E=       -0.015299371353 Rises=F Damp=F
 DIIS: error= 1.39D-03 at cycle   5 NSaved=   5.
 NSaved= 5 IEnMin= 5 EnMin= -399.980090937665     IErMin= 5 ErrMin= 1.39D-03
 ErrMax= 1.39D-03  0.00D+00 EMaxC= 1.00D-01 BMatC= 6.15D-04 BMatP= 1.70D-02
 IDIUse=3 WtCom= 9.86D-01 WtEn= 1.39D-02
 Coeff-Com: -0.186D-01 0.377D-01 0.190D+00 0.285D+00 0.506D+00
 Coeff-En:   0.000D+00 0.000D+00 0.000D+00 0.000D+00 0.100D+01
 Coeff:     -0.183D-01 0.372D-01 0.187D+00 0.281D+00 0.513D+00
 Gap=     0.148 Goal=   None    Shift=    0.000
 RMSDP=8.14D-05 MaxDP=4.07D-03 DE=-1.53D-02 OVMax= 1.60D-02

 Cycle   6  Pass 1  IDiag  1:
 E= -399.980574372912     Delta-E=       -0.000483435247 Rises=F Damp=F
 DIIS: error= 9.30D-04 at cycle   6 NSaved=   6.
 NSaved= 6 IEnMin= 6 EnMin= -399.980574372912     IErMin= 6 ErrMin= 9.30D-04
 ErrMax= 9.30D-04  0.00D+00 EMaxC= 1.00D-01 BMatC= 1.31D-04 BMatP= 6.15D-04
 IDIUse=3 WtCom= 9.91D-01 WtEn= 9.30D-03
 Coeff-Com: -0.771D-02 0.783D-02 0.617D-01 0.103D+00 0.339D+00 0.496D+00
 Coeff-En:   0.000D+00 0.000D+00 0.000D+00 0.000D+00 0.206D+00 0.794D+00
 Coeff:     -0.764D-02 0.776D-02 0.612D-01 0.102D+00 0.338D+00 0.499D+00
 Gap=     0.148 Goal=   None    Shift=    0.000
 RMSDP=3.26D-05 MaxDP=1.67D-03 DE=-4.83D-04 OVMax= 6.77D-03

 Cycle   7  Pass 1  IDiag  1:
 E= -399.980698222072     Delta-E=       -0.000123849160 Rises=F Damp=F
 DIIS: error= 2.67D-04 at cycle   7 NSaved=   7.
 NSaved= 7 IEnMin= 7 EnMin= -399.980698222072     IErMin= 7 ErrMin= 2.67D-04
 ErrMax= 2.67D-04  0.00D+00 EMaxC= 1.00D-01 BMatC= 1.22D-05 BMatP= 1.31D-04
 IDIUse=3 WtCom= 9.97D-01 WtEn= 2.67D-03
 Coeff-Com: -0.323D-02 0.223D-02 0.195D-01 0.344D-01 0.156D+00 0.302D+00
 Coeff-Com:  0.490D+00
 Coeff-En:   0.000D+00 0.000D+00 0.000D+00 0.000D+00 0.000D+00 0.333D-01
 Coeff-En:   0.967D+00
 Coeff:     -0.322D-02 0.222D-02 0.194D-01 0.343D-01 0.155D+00 0.301D+00
 Coeff:      0.491D+00
 Gap=     0.148 Goal=   None    Shift=    0.000
 RMSDP=9.61D-06 MaxDP=4.71D-04 DE=-1.24D-04 OVMax= 1.61D-03

 Cycle   8  Pass 1  IDiag  1:
 E= -399.980708734854     Delta-E=       -0.000010512782 Rises=F Damp=F
 DIIS: error= 5.34D-05 at cycle   8 NSaved=   8.
 NSaved= 8 IEnMin= 8 EnMin= -399.980708734854     IErMin= 8 ErrMin= 5.34D-05
 ErrMax= 5.34D-05  0.00D+00 EMaxC= 1.00D-01 BMatC= 1.17D-06 BMatP= 1.22D-05
 IDIUse=1 WtCom= 1.00D+00 WtEn= 0.00D+00
 Coeff-Com: -0.382D-03 0.218D-03-0.166D-02-0.262D-02 0.188D-01 0.666D-01
 Coeff-Com:  0.257D+00 0.662D+00
 Coeff:     -0.382D-03 0.218D-03-0.166D-02-0.262D-02 0.188D-01 0.666D-01
 Coeff:      0.257D+00 0.662D+00
 Gap=     0.148 Goal=   None    Shift=    0.000
 RMSDP=3.35D-06 MaxDP=1.24D-04 DE=-1.05D-05 OVMax= 5.33D-04

 Cycle   9  Pass 1  IDiag  1:
 E= -399.980709617160     Delta-E=       -0.000000882306 Rises=F Damp=F
 DIIS: error= 2.84D-05 at cycle   9 NSaved=   9.
 NSaved= 9 IEnMin= 9 EnMin= -399.980709617160     IErMin= 9 ErrMin= 2.84D-05
 ErrMax= 2.84D-05  0.00D+00 EMaxC= 1.00D-01 BMatC= 2.74D-07 BMatP= 1.17D-06
 IDIUse=1 WtCom= 1.00D+00 WtEn= 0.00D+00
 Coeff-Com: -0.463D-04-0.193D-04-0.258D-02-0.449D-02-0.174D-03 0.188D-01
 Coeff-Com:  0.123D+00 0.423D+00 0.443D+00
 Coeff:     -0.463D-04-0.193D-04-0.258D-02-0.449D-02-0.174D-03 0.188D-01
 Coeff:      0.123D+00 0.423D+00 0.443D+00
 Gap=     0.148 Goal=   None    Shift=    0.000
 RMSDP=1.65D-06 MaxDP=6.72D-05 DE=-8.82D-07 OVMax= 3.27D-04

 Cycle  10  Pass 1  IDiag  1:
 E= -399.980709842205     Delta-E=       -0.000000225045 Rises=F Damp=F
 DIIS: error= 1.01D-05 at cycle  10 NSaved=  10.
 NSaved=10 IEnMin=10 EnMin= -399.980709842205     IErMin=10 ErrMin= 1.01D-05
 ErrMax= 1.01D-05  0.00D+00 EMaxC= 1.00D-01 BMatC= 3.54D-08 BMatP= 2.74D-07
 IDIUse=1 WtCom= 1.00D+00 WtEn= 0.00D+00
 Coeff-Com:  0.729D-05 0.413D-04-0.943D-03-0.188D-02-0.368D-02-0.329D-02
 Coeff-Com:  0.116D-01 0.964D-01 0.283D+00 0.619D+00
 Coeff:      0.729D-05 0.413D-04-0.943D-03-0.188D-02-0.368D-02-0.329D-02
 Coeff:      0.116D-01 0.964D-01 0.283D+00 0.619D+00
 Gap=     0.148 Goal=   None    Shift=    0.000
 RMSDP=6.38D-07 MaxDP=2.14D-05 DE=-2.25D-07 OVMax= 1.28D-04

 Cycle  11  Pass 1  IDiag  1:
 E= -399.980709875237     Delta-E=       -0.000000033032 Rises=F Damp=F
 DIIS: error= 4.03D-06 at cycle  11 NSaved=  11.
 NSaved=11 IEnMin=11 EnMin= -399.980709875237     IErMin=11 ErrMin= 4.03D-06
 ErrMax= 4.03D-06  0.00D+00 EMaxC= 1.00D-01 BMatC= 3.65D-09 BMatP= 3.54D-08
 IDIUse=1 WtCom= 1.00D+00 WtEn= 0.00D+00
 Coeff-Com: -0.177D-07 0.391D-04-0.326D-03-0.724D-03-0.212D-02-0.335D-02
 Coeff-Com: -0.310D-02 0.231D-01 0.126D+00 0.361D+00 0.500D+00
 Coeff:     -0.177D-07 0.391D-04-0.326D-03-0.724D-03-0.212D-02-0.335D-02
 Coeff:     -0.310D-02 0.231D-01 0.126D+00 0.361D+00 0.500D+00
 Gap=     0.148 Goal=   None    Shift=    0.000
 RMSDP=1.87D-07 MaxDP=9.01D-06 DE=-3.30D-08 OVMax= 2.74D-05

 Cycle  12  Pass 1  IDiag  1:
 E= -399.980709878558     Delta-E=       -0.000000003322 Rises=F Damp=F
 DIIS: error= 1.24D-06 at cycle  12 NSaved=  12.
 NSaved=12 IEnMin=12 EnMin= -399.980709878558     IErMin=12 ErrMin= 1.24D-06
 ErrMax= 1.24D-06  0.00D+00 EMaxC= 1.00D-01 BMatC= 4.16D-10 BMatP= 3.65D-09
 IDIUse=1 WtCom= 1.00D+00 WtEn= 0.00D+00
 Coeff-Com: -0.393D-05 0.165D-04 0.113D-04-0.203D-04-0.464D-03-0.126D-02
 Coeff-Com: -0.460D-02-0.766D-02 0.108D-01 0.759D-01 0.278D+00 0.649D+00
 Coeff:     -0.393D-05 0.165D-04 0.113D-04-0.203D-04-0.464D-03-0.126D-02
 Coeff:     -0.460D-02-0.766D-02 0.108D-01 0.759D-01 0.278D+00 0.649D+00
 Gap=     0.148 Goal=   None    Shift=    0.000
 RMSDP=6.55D-08 MaxDP=2.37D-06 DE=-3.32D-09 OVMax= 6.04D-06

 Cycle  13  Pass 1  IDiag  1:
 E= -399.980709878920     Delta-E=       -0.000000000362 Rises=F Damp=F
 DIIS: error= 1.49D-07 at cycle  13 NSaved=  13.
 NSaved=13 IEnMin=13 EnMin= -399.980709878920     IErMin=13 ErrMin= 1.49D-07
 ErrMax= 1.49D-07  0.00D+00 EMaxC= 1.00D-01 BMatC= 6.39D-12 BMatP= 4.16D-10
 IDIUse=1 WtCom= 1.00D+00 WtEn= 0.00D+00
 Coeff-Com: -0.466D-06 0.237D-05 0.140D-04 0.184D-04-0.476D-04-0.237D-03
 Coeff-Com: -0.113D-02-0.293D-02-0.201D-02 0.494D-02 0.517D-01 0.179D+00
 Coeff-Com:  0.771D+00
 Coeff:     -0.466D-06 0.237D-05 0.140D-04 0.184D-04-0.476D-04-0.237D-03
 Coeff:     -0.113D-02-0.293D-02-0.201D-02 0.494D-02 0.517D-01 0.179D+00
 Coeff:      0.771D+00
 Gap=     0.148 Goal=   None    Shift=    0.000
 RMSDP=1.28D-08 MaxDP=4.46D-07 DE=-3.62D-10 OVMax= 9.57D-07

 Cycle  14  Pass 1  IDiag  1:
 E= -399.980709878927     Delta-E=       -0.000000000007 Rises=F Damp=F
 DIIS: error= 6.89D-08 at cycle  14 NSaved=  14.
 NSaved=14 IEnMin=14 EnMin= -399.980709878927     IErMin=14 ErrMin= 6.89D-08
 ErrMax= 6.89D-08  0.00D+00 EMaxC= 1.00D-01 BMatC= 1.29D-12 BMatP= 6.39D-12
 IDIUse=1 WtCom= 1.00D+00 WtEn= 0.00D+00
 Coeff-Com:  0.221D-06-0.412D-06 0.457D-05 0.829D-05 0.146D-04-0.869D-05
 Coeff-Com: -0.131D-03-0.637D-03-0.152D-02-0.369D-02 0.104D-02 0.296D-01
 Coeff-Com:  0.351D+00 0.624D+00
 Coeff:      0.221D-06-0.412D-06 0.457D-05 0.829D-05 0.146D-04-0.869D-05
 Coeff:     -0.131D-03-0.637D-03-0.152D-02-0.369D-02 0.104D-02 0.296D-01
 Coeff:      0.351D+00 0.624D+00
 Gap=     0.148 Goal=   None    Shift=    0.000
 RMSDP=4.29D-09 MaxDP=1.95D-07 DE=-7.16D-12 OVMax= 4.02D-07

 SCF Done:  E(RM06L) =  -399.980709879     A.U. after   14 cycles
            NFock= 14  Conv=0.43D-08     -V/T= 2.0014
 KE= 3.994384004223D+02 PE=-1.687930654131D+03 EE= 5.129623043284D+02
 Leave Link  502 at Sat Aug 28 13:45:21 2021, MaxMem= 17179869184 cpu:       465.9
 (Enter /public3/home/sc51754/softwares/g09e01/l801.exe)
 DoSCS=F DFT=T ScalE2(SS,OS)=  1.000000  1.000000
 Range of M.O.s used for correlation:     1   338
 NBasis=   338 NAE=    30 NBE=    30 NFC=     0 NFV=     0
 NROrb=    338 NOA=    30 NOB=    30 NVA=   308 NVB=   308

 **** Warning!!: The largest alpha MO coefficient is  0.19493610D+02

 Leave Link  801 at Sat Aug 28 13:45:22 2021, MaxMem= 17179869184 cpu:         4.0
 (Enter /public3/home/sc51754/softwares/g09e01/l1101.exe)
 Using compressed storage, NAtomX=    15.
 Will process     16 centers per pass.
 Leave Link 1101 at Sat Aug 28 13:45:24 2021, MaxMem= 17179869184 cpu:       112.4
 (Enter /public3/home/sc51754/softwares/g09e01/l1102.exe)
 Symmetrizing basis deriv contribution to polar:
 IMax=3 JMax=2 DiffMx= 0.00D+00
 Leave Link 1102 at Sat Aug 28 13:45:24 2021, MaxMem= 17179869184 cpu:         9.5
 (Enter /public3/home/sc51754/softwares/g09e01/l1110.exe)
 Forming Gx(P) for the SCF density, NAtomX=    15.
 Integral derivatives from FoFJK, PRISM(SPDF).
 Do as many integral derivatives as possible in FoFJK.
 G2DrvN: MDV=   17179868960.
 G2DrvN: will do    16 centers at a time, making    1 passes.
 Calling FoFCou, ICntrl=  3507 FMM=F I1Cent=   0 AccDes= 1.00D-12.
 FoFJK:  IHMeth= 1 ICntrl=    3507 DoSepK=F KAlg= 0 I1Cent=   0 FoldK=F
 IRaf=         0 NMat=   1 IRICut=       1 DoRegI=T DoRafI=F ISym2E= 0.
 FoFCou: FMM=F IPFlag=           0 FMFlag=      100000 FMFlg1=           0
         NFxFlg=           0 DoJE=F BraDBF=F KetDBF=F FulRan=T
         wScrn=  0.000000 ICntrl=    3507 IOpCl=  0 I1Cent=           0 NGrid=           0
         NMat0=    1 NMatS0=      1 NMatT0=    0 NMatD0=    1 NMtDS0=    0 NMtDT0=    0
 Symmetry not used in FoFCou.
 End of G2Drv F.D. properties file   721 does not exist.
 End of G2Drv F.D. properties file   722 does not exist.
 End of G2Drv F.D. properties file   788 does not exist.
 Leave Link 1110 at Sat Aug 28 13:45:39 2021, MaxMem= 17179869184 cpu:       923.3
 (Enter /public3/home/sc51754/softwares/g09e01/l1002.exe)
 Minotr:  Closed shell wavefunction.
          IDoAtm=111111111111111
          Direct CPHF calculation.
          Differentiating once with respect to nuclear coordinates.
          Requested convergence is 1.0D-08 RMS, and 1.0D-07 maximum.
          Secondary convergence is 1.0D-12 RMS, and 1.0D-12 maximum.
          NewPWx=T KeepS1=F KeepF1=F KeepIn=T MapXYZ=F SortEE=F KeepMc=T.
          MDV=   17179868692 using IRadAn=       2.
 Generate precomputed XC quadrature information.
 Keep J ints in memory in canonical form, NReq=1669919891.
 FoFCou: FMM=F IPFlag=           0 FMFlag=           0 FMFlg1=           0
         NFxFlg=           0 DoJE=F BraDBF=F KetDBF=F FulRan=T
         wScrn=  0.000000 ICntrl=     600 IOpCl=  0 I1Cent=           0 NGrid=           0
         NMat0=    1 NMatS0=  57291 NMatT0=    0 NMatD0=    1 NMtDS0=    0 NMtDT0=    0
 Symmetry not used in FoFCou.
          Solving linear equations simultaneously, MaxMat=       0.
          There are    48 degrees of freedom in the 1st order CPHF.  IDoFFX=6 NUNeed=     0.
     42 vectors produced by pass  0 Test12= 1.92D-14 2.08D-09 XBig12= 1.70D-01 1.62D-01.
 AX will form    42 AO Fock derivatives at one time.
     42 vectors produced by pass  1 Test12= 1.92D-14 2.08D-09 XBig12= 4.93D-02 5.74D-02.
     42 vectors produced by pass  2 Test12= 1.92D-14 2.08D-09 XBig12= 4.76D-04 1.99D-03.
     42 vectors produced by pass  3 Test12= 1.92D-14 2.08D-09 XBig12= 6.27D-06 3.67D-04.
     42 vectors produced by pass  4 Test12= 1.92D-14 2.08D-09 XBig12= 3.56D-08 1.62D-05.
     42 vectors produced by pass  5 Test12= 1.92D-14 2.08D-09 XBig12= 1.98D-10 1.44D-06.
     27 vectors produced by pass  6 Test12= 1.92D-14 2.08D-09 XBig12= 5.69D-13 7.56D-08.
      3 vectors produced by pass  7 Test12= 1.92D-14 2.08D-09 XBig12= 1.17D-15 2.92D-09.
 InvSVY:  IOpt=1 It=  1 EMax= 1.55D-15
 Solved reduced A of dimension   282 with    42 vectors.
 End of Minotr F.D. properties file   721 does not exist.
 End of Minotr F.D. properties file   722 does not exist.
 End of Minotr F.D. properties file   788 does not exist.
 Leave Link 1002 at Sat Aug 28 13:46:07 2021, MaxMem= 17179869184 cpu:      1773.5
 (Enter /public3/home/sc51754/softwares/g09e01/l601.exe)
 Copying SCF densities to generalized density rwf, IOpCl= 0 IROHF=0.

 **********************************************************************

            Population analysis using the SCF density.

 **********************************************************************

 Orbital symmetries:
       Occupied  (A) (A) (A) (A) (A) (A) (A) (A) (A) (A) (A) (A)
                 (A) (A) (A) (A) (A) (A) (A) (A) (A) (A) (A) (A)
                 (A) (A) (A) (A) (A) (A)
       Virtual   (A) (A) (A) (A) (A) (A) (A) (A) (A) (A) (A) (A)
                 (A) (A) (A) (A) (A) (A) (A) (A) (A) (A) (A) (A)
                 (A) (A) (A) (A) (A) (A) (A) (A) (A) (A) (A) (A)
                 (A) (A) (A) (A) (A) (A) (A) (A) (A) (A) (A) (A)
                 (A) (A) (A) (A) (A) (A) (A) (A) (A) (A) (A) (A)
                 (A) (A) (A) (A) (A) (A) (A) (A) (A) (A) (A) (A)
                 (A) (A) (A) (A) (A) (A) (A) (A) (A) (A) (A) (A)
                 (A) (A) (A) (A) (A) (A) (A) (A) (A) (A) (A) (A)
                 (A) (A) (A) (A) (A) (A) (A) (A) (A) (A) (A) (A)
                 (A) (A) (A) (A) (A) (A) (A) (A) (A) (A) (A) (A)
                 (A) (A) (A) (A) (A) (A) (A) (A) (A) (A) (A) (A)
                 (A) (A) (A) (A) (A) (A) (A) (A) (A) (A) (A) (A)
                 (A) (A) (A) (A) (A) (A) (A) (A) (A) (A) (A) (A)
                 (A) (A) (A) (A) (A) (A) (A) (A) (A) (A) (A) (A)
                 (A) (A) (A) (A) (A) (A) (A) (A) (A) (A) (A) (A)
                 (A) (A) (A) (A) (A) (A) (A) (A) (A) (A) (A) (A)
                 (A) (A) (A) (A) (A) (A) (A) (A) (A) (A) (A) (A)
                 (A) (A) (A) (A) (A) (A) (A) (A) (A) (A) (A) (A)
                 (A) (A) (A) (A) (A) (A) (A) (A) (A) (A) (A) (A)
                 (A) (A) (A) (A) (A) (A) (A) (A) (A) (A) (A) (A)
                 (A) (A) (A) (A) (A) (A) (A) (A) (A) (A) (A) (A)
                 (A) (A) (A) (A) (A) (A) (A) (A) (A) (A) (A) (A)
                 (A) (A) (A) (A) (A) (A) (A) (A) (A) (A) (A) (A)
                 (A) (A) (A) (A) (A) (A) (A) (A) (A) (A) (A) (A)
                 (A) (A) (A) (A) (A) (A) (A) (A) (A) (A) (A) (A)
                 (A) (A) (A) (A) (A) (A) (A) (A)
 The electronic state is 1-A.
 Alpha  occ. eigenvalues --  -18.96216 -18.92699 -14.17500 -10.13295 -10.09282
 Alpha  occ. eigenvalues --  -10.06645 -10.05102 -10.04780  -1.07816  -0.98407
 Alpha  occ. eigenvalues --   -0.91133  -0.77733  -0.71838  -0.62377  -0.58691
 Alpha  occ. eigenvalues --   -0.54789  -0.51491  -0.46416  -0.44546  -0.42516
 Alpha  occ. eigenvalues --   -0.40534  -0.39075  -0.37084  -0.35294  -0.33606
 Alpha  occ. eigenvalues --   -0.30706  -0.27462  -0.26520  -0.23802  -0.20528
 Alpha virt. eigenvalues --   -0.05748  -0.02119   0.02835   0.03820   0.05262
 Alpha virt. eigenvalues --    0.06972   0.08780   0.11137   0.12557   0.13563
 Alpha virt. eigenvalues --    0.16111   0.18282   0.18542   0.19409   0.20493
 Alpha virt. eigenvalues --    0.21661   0.22653   0.23405   0.24161   0.25124
 Alpha virt. eigenvalues --    0.26958   0.27438   0.27690   0.28397   0.29674
 Alpha virt. eigenvalues --    0.30731   0.31273   0.31450   0.34585   0.35536
 Alpha virt. eigenvalues --    0.36495   0.37390   0.39783   0.40592   0.42519
 Alpha virt. eigenvalues --    0.43750   0.44269   0.45086   0.46493   0.49829
 Alpha virt. eigenvalues --    0.51652   0.52597   0.54270   0.56343   0.58233
 Alpha virt. eigenvalues --    0.59209   0.60640   0.61010   0.63407   0.63662
 Alpha virt. eigenvalues --    0.64921   0.65752   0.69519   0.72165   0.75076
 Alpha virt. eigenvalues --    0.75891   0.76533   0.79605   0.81629   0.83502
 Alpha virt. eigenvalues --    0.87821   0.90503   0.91384   0.92801   0.94004
 Alpha virt. eigenvalues --    0.95279   0.96894   0.98184   1.01987   1.05341
 Alpha virt. eigenvalues --    1.07201   1.08574   1.08775   1.12046   1.13571
 Alpha virt. eigenvalues --    1.15299   1.15995   1.16885   1.17468   1.21058
 Alpha virt. eigenvalues --    1.23352   1.25168   1.27503   1.28149   1.30074
 Alpha virt. eigenvalues --    1.32272   1.34831   1.36867   1.39478   1.40634
 Alpha virt. eigenvalues --    1.43229   1.45934   1.49834   1.51034   1.52650
 Alpha virt. eigenvalues --    1.53277   1.55003   1.59437   1.61283   1.61954
 Alpha virt. eigenvalues --    1.63246   1.64834   1.65833   1.70104   1.70478
 Alpha virt. eigenvalues --    1.72451   1.73992   1.77065   1.78691   1.84883
 Alpha virt. eigenvalues --    1.86165   1.86997   1.89561   1.90489   1.91729
 Alpha virt. eigenvalues --    1.93643   1.98193   1.99097   2.02529   2.05441
 Alpha virt. eigenvalues --    2.06352   2.10901   2.12560   2.13557   2.16052
 Alpha virt. eigenvalues --    2.19028   2.21006   2.23940   2.26857   2.29124
 Alpha virt. eigenvalues --    2.30687   2.30970   2.32462   2.35605   2.42499
 Alpha virt. eigenvalues --    2.46898   2.59670   2.64078   2.67966   2.80715
 Alpha virt. eigenvalues --    2.89967   2.92090   2.96844   2.99877   3.02496
 Alpha virt. eigenvalues --    3.18276   3.19933   3.21124   3.22705   3.26152
 Alpha virt. eigenvalues --    3.29479   3.32923   3.35789   3.38311   3.40154
 Alpha virt. eigenvalues --    3.42157   3.43727   3.46537   3.48630   3.52566
 Alpha virt. eigenvalues --    3.54813   3.57125   3.60301   3.62581   3.65762
 Alpha virt. eigenvalues --    3.68141   3.70014   3.70325   3.72309   3.73607
 Alpha virt. eigenvalues --    3.75818   3.79747   3.81511   3.86342   3.89287
 Alpha virt. eigenvalues --    3.90788   3.91783   3.93073   3.97138   3.99159
 Alpha virt. eigenvalues --    4.00442   4.01333   4.06301   4.06883   4.10278
 Alpha virt. eigenvalues --    4.15802   4.16581   4.17499   4.17700   4.19553
 Alpha virt. eigenvalues --    4.20652   4.24326   4.25310   4.26662   4.28458
 Alpha virt. eigenvalues --    4.30097   4.31854   4.32597   4.34043   4.36013
 Alpha virt. eigenvalues --    4.38318   4.39243   4.40355   4.40829   4.42481
 Alpha virt. eigenvalues --    4.43500   4.44289   4.46386   4.48118   4.50347
 Alpha virt. eigenvalues --    4.51180   4.52225   4.53032   4.53338   4.55270
 Alpha virt. eigenvalues --    4.57512   4.58760   4.59043   4.60668   4.65641
 Alpha virt. eigenvalues --    4.69413   4.71468   4.73848   4.75535   4.78123
 Alpha virt. eigenvalues --    4.81045   4.82991   4.87668   4.89146   4.89953
 Alpha virt. eigenvalues --    4.94997   4.97411   4.98244   4.99626   5.00502
 Alpha virt. eigenvalues --    5.07039   5.09398   5.10010   5.13671   5.16604
 Alpha virt. eigenvalues --    5.18610   5.25159   5.26960   5.28222   5.29812
 Alpha virt. eigenvalues --    5.32536   5.37942   5.39066   5.39989   5.41319
 Alpha virt. eigenvalues --    5.44310   5.44960   5.47287   5.49116   5.51087
 Alpha virt. eigenvalues --    5.53388   5.56658   5.57713   5.59678   5.64441
 Alpha virt. eigenvalues --    5.65583   5.66042   5.69012   5.72403   5.75852
 Alpha virt. eigenvalues --    5.81464   5.82880   5.84983   5.94142   5.96936
 Alpha virt. eigenvalues --    6.00816   6.04783   6.12786   6.15994   6.22222
 Alpha virt. eigenvalues --    6.26564   6.30575   6.38814   6.43400   6.45187
 Alpha virt. eigenvalues --    6.51754   6.52874   6.58189   6.61525   6.69965
 Alpha virt. eigenvalues --    6.74336   6.79933   6.88392   6.91703   6.99961
 Alpha virt. eigenvalues --    7.01562   7.13775   7.26074   7.31557   7.43556
 Alpha virt. eigenvalues --    7.48549   7.70504   7.72716   7.89049   8.21757
 Alpha virt. eigenvalues --    9.64981  12.72914  13.30082  16.24778  18.28482
 Alpha virt. eigenvalues --   18.95829  22.81742  24.58499
          Condensed to atoms (all electrons):
               1          2          3          4          5          6
     1  O    8.446275  -0.069856   0.244968  -0.065132   0.006709   0.008283
     2  N   -0.069856   7.052024   0.351295   0.009314   0.415060  -0.054788
     3  C    0.244968   0.351295   4.499520   0.408621  -0.052757  -0.007513
     4  C   -0.065132   0.009314   0.408621   4.934052  -0.059919   0.408013
     5  C    0.006709   0.415060  -0.052757  -0.059919   4.608488  -0.024758
     6  C    0.008283  -0.054788  -0.007513   0.408013  -0.024758   4.789084
     7  C    0.000638   0.015190  -0.070123   0.009405   0.449238   0.366154
     8  H    0.253705  -0.016431  -0.002329   0.001325  -0.001225   0.000283
     9  H    0.000721   0.008215  -0.068793   0.502170  -0.002829  -0.070330
    10  H   -0.000295  -0.062223  -0.001335  -0.003434   0.478358   0.009710
    11  H   -0.000607  -0.002689   0.012992  -0.070845   0.010766   0.482517
    12  H    0.000053   0.009288  -0.002197   0.010257  -0.060282  -0.073963
    13  O   -0.225108  -0.144898   0.002850  -0.005568   0.002309   0.000687
    14  H    0.007559   0.006098   0.000316   0.000829  -0.000159  -0.000093
    15  H   -0.006651   0.084988  -0.016882   0.001068  -0.000535  -0.000565
               7          8          9         10         11         12
     1  O    0.000638   0.253705   0.000721  -0.000295  -0.000607   0.000053
     2  N    0.015190  -0.016431   0.008215  -0.062223  -0.002689   0.009288
     3  C   -0.070123  -0.002329  -0.068793  -0.001335   0.012992  -0.002197
     4  C    0.009405   0.001325   0.502170  -0.003434  -0.070845   0.010257
     5  C    0.449238  -0.001225  -0.002829   0.478358   0.010766  -0.060282
     6  C    0.366154   0.000283  -0.070330   0.009710   0.482517  -0.073963
     7  C    4.978868  -0.000398   0.011462  -0.077088  -0.076878   0.493369
     8  H   -0.000398   0.369540  -0.000182   0.000080  -0.000033   0.000001
     9  H    0.011462  -0.000182   0.659458   0.000167  -0.019305   0.000237
    10  H   -0.077088   0.000080   0.000167   0.670071  -0.000433  -0.013442
    11  H   -0.076878  -0.000033  -0.019305  -0.000433   0.709258  -0.017979
    12  H    0.493369   0.000001   0.000237  -0.013442  -0.017979   0.697755
    13  O   -0.001453   0.150341   0.000147   0.000548  -0.000029   0.000037
    14  H    0.000228  -0.007403  -0.000012  -0.000189   0.000005  -0.000009
    15  H   -0.000005  -0.007737  -0.000218  -0.000647   0.000141  -0.000081
              13         14         15
     1  O   -0.225108   0.007559  -0.006651
     2  N   -0.144898   0.006098   0.084988
     3  C    0.002850   0.000316  -0.016882
     4  C   -0.005568   0.000829   0.001068
     5  C    0.002309  -0.000159  -0.000535
     6  C    0.000687  -0.000093  -0.000565
     7  C   -0.001453   0.000228  -0.000005
     8  H    0.150341  -0.007403  -0.007737
     9  H    0.000147  -0.000012  -0.000218
    10  H    0.000548  -0.000189  -0.000647
    11  H   -0.000029   0.000005   0.000141
    12  H    0.000037  -0.000009  -0.000081
    13  O    7.944396   0.350981   0.284075
    14  H    0.350981   0.410434  -0.009510
    15  H    0.284075  -0.009510   0.443524
 Mulliken charges:
               1
     1  O   -0.601263
     2  N   -0.600588
     3  C    0.701367
     4  C   -0.080155
     5  C    0.231536
     6  C    0.167279
     7  C   -0.098605
     8  H    0.260465
     9  H   -0.020908
    10  H    0.000152
    11  H   -0.026880
    12  H   -0.043045
    13  O   -0.359313
    14  H    0.240923
    15  H    0.229035
 Sum of Mulliken charges =  -0.00000
 Mulliken charges with hydrogens summed into heavy atoms:
               1
     1  O   -0.340799
     2  N   -0.600588
     3  C    0.701367
     4  C   -0.101063
     5  C    0.231688
     6  C    0.140399
     7  C   -0.141650
    13  O    0.110645
 APT charges:
               1
     1  O   -0.476223
     2  N   -0.599068
     3  C    0.455963
     4  C   -0.562277
     5  C   -0.244742
     6  C   -0.346368
     7  C   -0.588486
     8  H    0.261103
     9  H    0.438396
    10  H    0.440531
    11  H    0.561283
    12  H    0.586391
    13  O   -0.823454
    14  H    0.765180
    15  H    0.131770
 Sum of APT charges =  -0.00000
 APT charges with hydrogens summed into heavy atoms:
               1
     1  O   -0.215120
     2  N   -0.599068
     3  C    0.455963
     4  C   -0.123881
     5  C    0.195789
     6  C    0.214914
     7  C   -0.002095
    13  O    0.073497
 Electronic spatial extent (au):  <R**2>=            933.0419
 Charge=             -0.0000 electrons
 Dipole moment (field-independent basis, Debye):
    X=             -1.4000    Y=             -1.8690    Z=              1.3366  Tot=              2.6907
 Quadrupole moment (field-independent basis, Debye-Ang):
   XX=            -41.9204   YY=            -45.0115   ZZ=            -47.6135
   XY=             -4.4611   XZ=              4.5161   YZ=             -1.4274
 Traceless Quadrupole moment (field-independent basis, Debye-Ang):
   XX=              2.9281   YY=             -0.1631   ZZ=             -2.7651
   XY=             -4.4611   XZ=              4.5161   YZ=             -1.4274
 Octapole moment (field-independent basis, Debye-Ang**2):
  XXX=             16.0494  YYY=             -6.2627  ZZZ=              1.0645  XYY=             -1.7533
  XXY=             -8.4089  XXZ=             14.4083  XZZ=             12.5432  YZZ=             -0.9183
  YYZ=              1.4514  XYZ=             -4.6596
 Hexadecapole moment (field-independent basis, Debye-Ang**3):
 XXXX=           -700.4544 YYYY=           -320.5769 ZZZZ=            -48.6415 XXXY=            -25.2008
 XXXZ=             45.8352 YYYX=            -12.9685 YYYZ=             -1.6769 ZZZX=              4.3982
 ZZZY=             -1.5694 XXYY=           -179.4899 XXZZ=           -138.5059 YYZZ=            -69.2656
 XXYZ=            -14.0486 YYXZ=              4.9101 ZZXY=             -4.1512
 N-N= 3.755492395017D+02 E-N=-1.687930658934D+03  KE= 3.994384004223D+02
  Exact polarizability:   0.000   0.000   0.000   0.000   0.000   0.000
 Approx polarizability: 175.117  13.397 158.362   1.124  -0.773  66.748
 No NMR shielding tensors so no spin-rotation constants.
 Leave Link  601 at Sat Aug 28 13:46:09 2021, MaxMem= 17179869184 cpu:        56.4
 (Enter /public3/home/sc51754/softwares/g09e01/l701.exe)
 Compute integral second derivatives.
 ... and contract with generalized density number  0.
 Leave Link  701 at Sat Aug 28 13:46:11 2021, MaxMem= 17179869184 cpu:       134.8
 (Enter /public3/home/sc51754/softwares/g09e01/l702.exe)
 L702 exits ... SP integral derivatives will be done elsewhere.
 Leave Link  702 at Sat Aug 28 13:46:12 2021, MaxMem= 17179869184 cpu:         5.8
 (Enter /public3/home/sc51754/softwares/g09e01/l703.exe)
 Compute integral second derivatives, UseDBF=F ICtDFT=           0.
 Integral derivatives from FoFJK, PRISM(SPDF).
 Calling FoFJK, ICntrl=    100547 FMM=F ISym2X=0 I1Cent= 0 IOpClX= 0 NMat=1 NMatS=1 NMatT=0.
 FoFJK:  IHMeth= 1 ICntrl=  100547 DoSepK=F KAlg= 0 I1Cent=   0 FoldK=F
 IRaf=         0 NMat=   1 IRICut=       1 DoRegI=T DoRafI=F ISym2E= 0.
 FoFCou: FMM=F IPFlag=           0 FMFlag=      100000 FMFlg1=         800
         NFxFlg=           0 DoJE=F BraDBF=F KetDBF=F FulRan=T
         wScrn=  0.000000 ICntrl=  100547 IOpCl=  0 I1Cent=           0 NGrid=           0
         NMat0=    1 NMatS0=      1 NMatT0=    0 NMatD0=    1 NMtDS0=    0 NMtDT0=    0
 Symmetry not used in FoFCou.
 Leave Link  703 at Sat Aug 28 13:46:37 2021, MaxMem= 17179869184 cpu:      1583.3
 (Enter /public3/home/sc51754/softwares/g09e01/l716.exe)
 Dipole        =-5.50804471D-01-7.35315517D-01 5.25861338D-01
 Polarizability= 0.00000000D+00 0.00000000D+00 0.00000000D+00
                 0.00000000D+00 0.00000000D+00 0.00000000D+00
 ***** Axes restored to original set *****
 -------------------------------------------------------------------
 Center     Atomic                   Forces (Hartrees/Bohr)
 Number     Number              X              Y              Z
 -------------------------------------------------------------------
      1        8          -0.091317678    0.036689862   -0.000084925
      2        7          -0.045375008   -0.007356661    0.001252879
      3        6          -0.000060135    0.053297028    0.000415697
      4        6          -0.013825620   -0.006867576    0.000085206
      5        6          -0.005901220   -0.005999708    0.000035618
      6        6           0.001524897    0.007643850    0.000007166
      7        6           0.004778123   -0.005137244   -0.000055167
      8        1           0.029974669    0.059413336    0.006715965
      9        1           0.001214986   -0.000731723   -0.000002587
     10        1          -0.000001221    0.000266697   -0.000023309
     11        1          -0.000531199   -0.000264248   -0.000028420
     12        1           0.000674507   -0.000457653   -0.000028182
     13        8           0.137155790   -0.078224223   -0.004773000
     14        1           0.004021244    0.003673453   -0.001037833
     15        1          -0.022332136   -0.055945191   -0.002479107
 -------------------------------------------------------------------
 Cartesian Forces:  Max     0.137155790 RMS     0.032712604
 FormGI is forming the generalized inverse of G from B-inverse, IUseBI=4.
 Leave Link  716 at Sat Aug 28 13:46:37 2021, MaxMem= 17179869184 cpu:         9.6
 (Enter /public3/home/sc51754/softwares/g09e01/l103.exe)

 GradGradGradGradGradGradGradGradGradGradGradGradGradGradGradGradGradGrad
 Berny optimization.
 Red2BG is reusing G-inverse.
 Internal  Forces:  Max     0.097032321 RMS     0.020516605
 Search for a saddle point.
 Step number   1 out of a maximum of  100
 All quantities printed in internal units (Hartrees-Bohrs-Radians)
 Second derivative matrix not updated -- analytic derivatives used.
 ITU=  0
 LST/QST climbing along tangent vector
     Eigenvalues ---    0.00015   0.00154   0.00406   0.00638   0.01153
     Eigenvalues ---    0.01738   0.01861   0.02153   0.02372   0.02750
     Eigenvalues ---    0.03075   0.03451   0.04001   0.06279   0.08002
     Eigenvalues ---    0.09003   0.10311   0.10647   0.11990   0.12406
     Eigenvalues ---    0.13104   0.14842   0.19590   0.20295   0.22342
     Eigenvalues ---    0.28277   0.33221   0.35392   0.35986   0.36517
     Eigenvalues ---    0.36773   0.39664   0.42156   0.45178   0.46146
     Eigenvalues ---    0.49239   0.53597   0.54311   0.546921000.00000
     Eigenvalues --- 1000.000001000.000001000.000001000.000001000.00000
     Eigenvalues --- 1000.000001000.000001000.000001000.000001000.00000
     Eigenvalues --- 1000.000001000.000001000.000001000.000001000.00000
     Eigenvalues --- 1000.000001000.000001000.000001000.000001000.00000
     Eigenvalues --- 1000.000001000.000001000.000001000.000001000.00000
     Eigenvalues --- 1000.000001000.000001000.000001000.000001000.00000
     Eigenvalues --- 1000.000001000.000001000.000001000.000001000.00000
     Eigenvalues --- 1000.000001000.000001000.000001000.000001000.00000
     Eigenvalues --- 1000.00000
 Eigenvectors required to have negative eigenvalues:
                          D34       D3        D33       D36       D38
   1                    0.58531  -0.58433   0.49920   0.10452   0.10335
                          A21       A20       A22       R5        A24
   1                   -0.09199  -0.09101   0.08144  -0.06311   0.05893
 Eigenvalue     1 is   1.46D-04 should be less than     0.000000 Eigenvector:
                          D34       D3        D33       D36       D38
   1                    0.58531  -0.58433   0.49920   0.10452   0.10335
                          A21       A20       A22       R5        A24
   1                   -0.09199  -0.09101   0.08144  -0.06311   0.05893
 QST in optimization variable space.
 Eigenvectors 1 and  16 swapped, overlap=  1.0000
                        Tangent   TS vect  // Eig F  Eigenval
   1         R1        -0.04260   0.04260   0.03493   0.09003
   2         R2         0.33211  -0.33211   0.00023   0.00154
   3         R3         0.02720  -0.02720  -0.00013   0.00406
   4         R4         0.00604  -0.00604   0.00011   0.00638
   5         R5        -0.54389   0.54389   0.00005   0.01153
   6         R6         0.01329  -0.01329   0.00001   0.01738
   7         R7        -0.00614   0.00614   0.00008   0.01861
   8         R8        -0.00007   0.00007  -0.00005   0.02153
   9         R9        -0.00702   0.00702  -0.00010   0.02372
  10         R10       -0.00139   0.00139   0.00002   0.02750
  11         R11        0.00672  -0.00672   0.00004   0.03075
  12         R12        0.00029  -0.00029  -0.00000   0.03451
  13         R13       -0.00074   0.00074  -0.00578   0.04001
  14         R14       -0.53089   0.53089  -0.00970   0.06279
  15         R15       -0.16714   0.16714   0.00011   0.08002
  16         R16       -0.00031   0.00031   0.00069   0.00015
  17         R17        0.34123  -0.34123  -0.00272   0.10311
  18         A1        -0.05083   0.05083   0.00580   0.10647
  19         A2         0.02065  -0.02065   0.00002   0.11990
  20         A3         0.00030  -0.00030  -0.00996   0.12406
  21         A4        -0.02093   0.02093  -0.00117   0.13104
  22         A5         0.00433  -0.00433  -0.01660   0.14842
  23         A6         0.02620  -0.02620   0.00161   0.19590
  24         A7        -0.03053   0.03053   0.01268   0.20295
  25         A8         0.01149  -0.01149  -0.01002   0.22342
  26         A9        -0.00977   0.00977   0.01338   0.28277
  27         A10       -0.00172   0.00172  -0.01375   0.33221
  28         A11       -0.00818   0.00818   0.00255   0.35392
  29         A12        0.00009  -0.00009  -0.00254   0.35986
  30         A13        0.00808  -0.00808  -0.00506   0.36517
  31         A14        0.00561  -0.00561  -0.00091   0.36773
  32         A15       -0.00148   0.00148   0.03572   0.39664
  33         A16       -0.00413   0.00413  -0.01265   0.42156
  34         A17        0.00096  -0.00096  -0.02429   0.45178
  35         A18       -0.00131   0.00131  -0.01745   0.46146
  36         A19        0.00035  -0.00035   0.00444   0.49239
  37         A20        0.03871  -0.03871   0.04432   0.53597
  38         A21       -0.23056   0.23056  -0.01230   0.54311
  39         A22       -0.04777   0.04777   0.05037   0.54692
  40         A23       -0.00566   0.00566   0.000001000.00000
  41         A24        0.08083  -0.08083   0.000001000.00000
  42         A25        0.27606  -0.27606  -0.000001000.00000
  43         A26        0.01327  -0.01327   0.000001000.00000
  44         D1         0.00923  -0.00923   0.000001000.00000
  45         D2         0.00971  -0.00971   0.000001000.00000
  46         D3         0.02285  -0.02285  -0.000001000.00000
  47         D4        -0.01935   0.01935   0.000001000.00000
  48         D5         0.00143  -0.00143   0.000001000.00000
  49         D6         0.00093  -0.00093  -0.000001000.00000
  50         D7         0.00555  -0.00555  -0.000001000.00000
  51         D8         0.00505  -0.00505  -0.000001000.00000
  52         D9        -0.00023   0.00023   0.000001000.00000
  53         D10        0.00000  -0.00000  -0.000001000.00000
  54         D11       -0.00777   0.00777  -0.000001000.00000
  55         D12       -0.00754   0.00754  -0.000001000.00000
  56         D13       -0.01830   0.01830   0.000001000.00000
  57         D14       -0.01713   0.01713  -0.000001000.00000
  58         D15       -0.01156   0.01156   0.000001000.00000
  59         D16       -0.01039   0.01039  -0.000001000.00000
  60         D17       -0.00146   0.00146   0.000001000.00000
  61         D18       -0.00094   0.00094   0.000001000.00000
  62         D19       -0.00096   0.00096   0.000001000.00000
  63         D20       -0.00045   0.00045  -0.000001000.00000
  64         D21        0.00030  -0.00030   0.000001000.00000
  65         D22        0.00038  -0.00038   0.000001000.00000
  66         D23       -0.00024   0.00024   0.000001000.00000
  67         D24       -0.00015   0.00015  -0.000001000.00000
  68         D25       -0.00045   0.00045   0.000001000.00000
  69         D26       -0.00010   0.00010   0.000001000.00000
  70         D27       -0.00068   0.00068  -0.000001000.00000
  71         D28       -0.00034   0.00034   0.000001000.00000
  72         D29        0.00038  -0.00038  -0.000001000.00000
  73         D30        0.00003  -0.00003  -0.000001000.00000
  74         D31        0.00029  -0.00029   0.000001000.00000
  75         D32       -0.00005   0.00005   0.000001000.00000
  76         D33       -0.11623   0.11623  -0.000001000.00000
  77         D34       -0.02382   0.02382  -0.000001000.00000
  78         D35        0.02890  -0.02890  -0.000001000.00000
  79         D36        0.02500  -0.02500   0.000001000.00000
  80         D37        0.01804  -0.01804   0.000001000.00000
  81         D38       -0.03736   0.03736   0.000001000.00000
 RFO step:  Lambda0=1.019971295D-01 Lambda=-2.03518940D-02.
 Linear search not attempted -- option 19 set.
 Maximum step size (   0.300) exceeded in Quadratic search.
    -- Step size scaled by   0.103
 Iteration  1 RMS(Cart)=  0.02340536 RMS(Int)=  0.00121869
 Iteration  2 RMS(Cart)=  0.00060369 RMS(Int)=  0.00065548
 Iteration  3 RMS(Cart)=  0.00000026 RMS(Int)=  0.00065548
 ITry= 1 IFail=0 DXMaxC= 1.49D-01 DCOld= 1.00D+10 DXMaxT= 3.00D-01 DXLimC= 3.00D+00 Rises=F
 Variable       Old X    -DE/DX   Delta X   Delta X   Delta X     New X
                                 (Linear)    (Quad)   (Total)
    R1        2.51901  -0.00912   0.00000  -0.01676  -0.01753   2.50148
    R2        1.94480   0.09703   0.00000   0.10972   0.11011   2.05491
    R3        2.51808   0.03581   0.00000   0.01063   0.00986   2.52794
    R4        2.52613   0.00497   0.00000   0.00176   0.00178   2.52790
    R5        2.55113   0.05819   0.00000  -0.16012  -0.15974   2.39139
    R6        2.64301   0.00752   0.00000   0.00494   0.00491   2.64792
    R7        2.59808  -0.00315   0.00000  -0.00223  -0.00224   2.59584
    R8        2.03769  -0.00082   0.00000  -0.00002  -0.00002   2.03768
    R9        2.60367  -0.00457   0.00000  -0.00260  -0.00258   2.60110
   R10        2.04683  -0.00026   0.00000  -0.00047  -0.00047   2.04637
   R11        2.63082   0.00472   0.00000   0.00260   0.00260   2.63342
   R12        2.04273   0.00038   0.00000   0.00013   0.00013   2.04286
   R13        2.03758  -0.00024   0.00000  -0.00028  -0.00028   2.03731
   R14        2.02201   0.09267   0.00000  -0.15099  -0.15247   1.86953
   R15        2.48644   0.04814   0.00000  -0.03970  -0.03583   2.45061
   R16        1.80603   0.00009   0.00000  -0.00015  -0.00015   1.80589
   R17        1.84175   0.05782   0.00000   0.11227   0.10993   1.95168
    A1        1.64973   0.01938   0.00000  -0.00744  -0.00756   1.64218
    A2        2.05742  -0.00406   0.00000   0.00804   0.00800   2.06542
    A3        1.67126   0.02460   0.00000   0.00427   0.00425   1.67551
    A4        2.55450  -0.02054   0.00000  -0.01230  -0.01225   2.54225
    A5        2.07691   0.00089   0.00000  -0.00001  -0.00078   2.07613
    A6        2.06307   0.00781   0.00000   0.01166   0.01212   2.07519
    A7        2.14320  -0.00870   0.00000  -0.01165  -0.01135   2.13186
    A8        2.06225   0.00420   0.00000   0.00420   0.00409   2.06633
    A9        2.08427  -0.00327   0.00000  -0.00362  -0.00357   2.08070
   A10        2.13667  -0.00094   0.00000  -0.00058  -0.00052   2.13615
   A11        2.15902   0.00296   0.00000  -0.00316  -0.00319   2.15583
   A12        2.01794  -0.00155   0.00000   0.00021   0.00023   2.01817
   A13        2.10623  -0.00142   0.00000   0.00294   0.00296   2.10919
   A14        2.08907   0.00199   0.00000   0.00225   0.00217   2.09124
   A15        2.09308  -0.00050   0.00000  -0.00060  -0.00056   2.09252
   A16        2.10103  -0.00149   0.00000  -0.00165  -0.00161   2.09942
   A17        2.05541   0.00361   0.00000   0.00032   0.00028   2.05569
   A18        2.10542  -0.00262   0.00000  -0.00051  -0.00049   2.10493
   A19        2.12236  -0.00098   0.00000   0.00018   0.00020   2.12256
[...]
   A12        2.02307  -0.00000   0.00000  -0.00000  -0.00000   2.02307
   A13        2.12883  -0.00000   0.00000  -0.00000  -0.00000   2.12883
   A14        2.10777   0.00000   0.00000  -0.00001  -0.00001   2.10777
   A15        2.08656  -0.00000   0.00000   0.00000   0.00000   2.08657
   A16        2.08885  -0.00000   0.00000   0.00000   0.00000   2.08885
   A17        2.05529   0.00000   0.00000   0.00001   0.00001   2.05529
   A18        2.10410  -0.00000   0.00000  -0.00001  -0.00001   2.10409
   A19        2.12380  -0.00000   0.00000  -0.00000  -0.00000   2.12380
   A20        2.75869   0.00001   0.00000   0.00012   0.00012   2.75881
   A21        1.89497  -0.00000   0.00000   0.00008   0.00008   1.89505
   A22        1.92338   0.00001   0.00000   0.00000   0.00000   1.92338
   A23        1.43745  -0.00002   0.00000  -0.00020  -0.00020   1.43725
   A24        1.95038   0.00000   0.00000  -0.00026  -0.00026   1.95012
   A25        1.78144  -0.00001   0.00000  -0.00016  -0.00016   1.78128
   A26        2.61563   0.00000   0.00000   0.00003   0.00003   2.61566
    D1        0.00483  -0.00001   0.00000  -0.00174  -0.00174   0.00310
    D2       -3.13644  -0.00001   0.00000  -0.00178  -0.00178  -3.13823
    D3        0.09223   0.00001   0.00000   0.00339   0.00339   0.09562
    D4       -0.01349   0.00001   0.00000   0.00193   0.00193  -0.01156
    D5       -3.13841   0.00000   0.00000  -0.00031  -0.00031  -3.13871
    D6        0.00288   0.00000   0.00000  -0.00026  -0.00026   0.00262
    D7        0.00871   0.00000   0.00000   0.00054   0.00054   0.00925
    D8       -3.13318   0.00000   0.00000   0.00058   0.00058  -3.13260
    D9       -0.00189   0.00000   0.00000   0.00021   0.00021  -0.00168
   D10        3.13768   0.00000   0.00000   0.00012   0.00012   3.13780
   D11        3.13248  -0.00000   0.00000  -0.00090  -0.00090   3.13158
   D12       -0.01114  -0.00000   0.00000  -0.00098  -0.00098  -0.01213
   D13       -0.01448   0.00000   0.00000   0.00062   0.00062  -0.01386
   D14       -0.11939   0.00001   0.00000   0.00212   0.00212  -0.11727
   D15        3.13352   0.00000   0.00000   0.00160   0.00160   3.13512
   D16        3.02862   0.00001   0.00000   0.00310   0.00310   3.03172
   D17        3.13882  -0.00000   0.00000   0.00020   0.00020   3.13902
   D18        0.00008  -0.00000   0.00000   0.00005   0.00005   0.00013
   D19       -0.00245  -0.00000   0.00000   0.00015   0.00015  -0.00230
   D20       -3.14120  -0.00000   0.00000   0.00001   0.00001  -3.14119
   D21        0.00106   0.00000   0.00000   0.00001   0.00001   0.00107
   D22       -3.13967  -0.00000   0.00000  -0.00009  -0.00009  -3.13976
   D23        3.13968   0.00000   0.00000   0.00016   0.00016   3.13984
   D24       -0.00104   0.00000   0.00000   0.00005   0.00005  -0.00099
   D25        0.00039  -0.00000   0.00000  -0.00004  -0.00004   0.00035
   D26        3.14007  -0.00000   0.00000  -0.00007  -0.00007   3.14000
   D27       -3.13906  -0.00000   0.00000   0.00005   0.00005  -3.13901
   D28        0.00062  -0.00000   0.00000   0.00002   0.00002   0.00065
   D29       -0.00001   0.00000   0.00000  -0.00007  -0.00007  -0.00007
   D30       -3.13966  -0.00000   0.00000  -0.00004  -0.00004  -3.13970
   D31        3.14072   0.00000   0.00000   0.00004   0.00004   3.14075
   D32        0.00106   0.00000   0.00000   0.00007   0.00007   0.00112
   D33       -2.05896  -0.00000   0.00000  -0.00146  -0.00146  -2.06042
   D34       -0.13166  -0.00001   0.00000  -0.00180  -0.00180  -0.13346
   D35        0.01903  -0.00001   0.00000  -0.00171  -0.00171   0.01732
   D36        1.56507  -0.00002   0.00000  -0.00032  -0.00032   1.56474
   D37        0.13822  -0.00001   0.00000  -0.00199  -0.00199   0.13624
   D38        2.03644  -0.00001   0.00000  -0.00206  -0.00206   2.03439
         Item               Value     Threshold  Converged?
 Maximum Force            0.000048     0.000450     YES
 RMS     Force            0.000012     0.000300     YES
 Maximum Displacement     0.002628     0.001800     NO 
 RMS     Displacement     0.000635     0.001200     YES
 Predicted change in Energy=-1.367136D-07
 GradGradGradGradGradGradGradGradGradGradGradGradGradGradGradGradGradGrad

 Leave Link  103 at Sat Aug 28 14:08:34 2021, MaxMem= 17179869184 cpu:        84.7
 (Enter /public3/home/sc51754/softwares/g09e01/l9999.exe)
 1\1\GINC-N1710\Freq\RM06L\Gen\C5H7N1O2\SC51754\28-Aug-2021\0\\#P Geom=
 AllCheck Guess=TCheck SCRF=Check GenChk RM06L/ChkBas Freq\\HY_H2O_M06L
 _PC2_OPT_FREQ\\0,1\O,1.3430632538,1.4501001538,-0.0101714127\N,0.43730
 95775,-0.6331445525,-0.006663543\C,0.2856225378,0.7238288426,-0.006709
 9945\C,-1.0224242973,1.2552603097,-0.0033328754\C,-0.6195660861,-1.454
 115501,-0.0068026516\C,-2.0945171899,0.403121979,-0.0030580565\C,-1.90
 66011405,-0.9844831148,-0.0048104741\H,2.2785137409,0.6618515046,-0.01
 84016431\H,-1.1392108233,2.3270182297,-0.0037549743\H,-0.3960690805,-2
 .512294766,-0.0105572346\H,-3.097437014,0.8077137612,-0.0022871417\H,-
 2.738987713,-1.6681436099,-0.0063907936\O,2.8472983937,-0.4069878235,-
 0.0672332724\H,3.3307635956,-0.5611089585,0.7432793081\H,1.6852711554,
 -0.8411954545,0.0002466393\\Version=EM64L-G09RevE.01\State=1-A\HF=-400
 .0359446\RMSD=1.934e-09\RMSF=2.372e-05\ZeroPoint=0.1134413\Thermal=0.1
 199548\Dipole=-0.8157164,-0.7097717,0.5308058\DipoleDeriv=-1.8752351,-
 0.3631783,-0.0140768,-0.2310712,-0.8649724,0.0034299,-0.0134806,0.0026
 918,-0.335501,-1.3096675,0.1524078,-0.0079187,-0.513776,-0.5114135,-0.
 0019094,-0.0357715,0.0005262,-0.1669171,1.6267779,0.7617982,0.0046365,
 0.7232004,0.6937818,0.0016013,-0.0070914,-0.0040236,0.2056638,-0.59265
 13,-0.4446606,-0.0022052,0.0849176,0.0297067,-0.0006131,0.0094122,-0.0
 013397,-0.1625318,0.6157421,-0.2740246,0.0010627,0.316073,0.2631626,0.
 0081187,0.0001558,0.0045593,0.001841,0.2642981,0.0953822,-0.0000255,0.
 0751561,0.5133271,0.0011284,-0.0014808,-0.0003433,-0.0620237,-0.262100
 4,0.3231232,-0.0006226,0.0376758,-0.3992429,-0.0011068,0.0072744,0.000
 4482,-0.174322,1.1345224,-0.401683,0.0036161,-0.9323253,0.6679619,-0.0
 346009,-0.0025793,-0.0286468,0.1993876,0.0510521,0.0011312,-0.0002479,
 0.016553,-0.054205,-0.0000002,0.0000706,0.0002288,0.1349441,0.0509099,
 0.0358716,-0.0005505,-0.0148245,-0.0919282,-0.0006925,-0.0035719,-0.00
 08319,0.1098463,-0.0765625,0.0615469,-0.0001815,0.0613759,0.0538323,-0
 .0001083,-0.001555,0.0003703,0.1074723,-0.0281981,-0.0698267,-0.000604
 7,-0.0632931,-0.0020073,-0.0001294,-0.0003762,-0.000253,0.1442018,-1.7
 46527,0.197129,0.0076598,0.3133771,-0.7158406,-0.0010501,0.0688904,-0.
 0166606,-0.3175071,0.2683803,0.0011033,-0.0173525,-0.0135561,0.2552961
 ,0.0057618,-0.0474857,0.0198742,0.1423654,1.8792588,-0.0761202,0.02681
 1,0.1405172,0.1625415,0.0201708,0.0275891,0.0234002,0.1730804\Polar=10
 3.615918,4.1064235,84.1531462,1.2783602,-0.2908829,42.9852897\PG=C01 [
 X(C5H7N1O2)]\NImag=1\\0.44799003,0.16034254,0.35059855,-0.00190050,-0.
 00121152,0.05310529,0.02875267,-0.05804237,0.00064840,0.59783975,-0.03
 754634,-0.06294357,-0.00002239,0.12371520,0.61507260,0.00143304,-0.000
 12576,0.01332771,0.00073663,0.00042243,0.10020198,-0.33257152,-0.14598
 889,0.00106418,-0.17625087,0.02165960,-0.00142634,0.80776096,-0.145228
 48,-0.21175101,0.00115126,0.04462141,-0.23776457,-0.00059413,0.0504671
 3,0.63361223,0.00031896,0.00027388,-0.06726522,-0.00019529,-0.00024252
 ,-0.07171873,-0.00069557,0.00012485,0.19951600,-0.07466767,0.00138045,
 0.00014235,0.02643601,0.06218552,0.00044638,-0.23829839,0.04770792,0.0
 0038463,0.67701239,-0.03380755,0.02032753,0.00006345,0.03727005,-0.024
 03805,-0.00006909,0.09158601,-0.15427915,-0.00038527,0.04462944,0.7720
 7304,0.00028810,0.00051028,0.01391386,-0.00036113,-0.00012983,0.012721
 07,0.00066134,-0.00063003,-0.07630473,-0.00109861,0.00021379,0.1196051
 0,-0.01355310,0.01242833,-0.00016903,-0.26778231,-0.09432189,0.0002748
 3,0.05201956,-0.07206219,-0.00003239,-0.05766353,-0.00526570,0.0000713
 0,0.71460676,-0.00325367,-0.00013596,-0.00013213,-0.11390979,-0.213612
 01,0.00012534,-0.01972875,-0.05930469,0.00010490,-0.01039789,-0.000435
 23,0.00004658,-0.04453917,0.75661284,-0.00007166,0.00006713,0.00836120
 ,-0.00012730,-0.00004494,-0.05501845,-0.00005672,-0.00000215,-0.003161
 64,0.00000625,0.00007958,-0.00312834,-0.00020238,0.00142082,0.14965136
 ,0.00336927,0.00454429,-0.00001023,-0.00616328,-0.01417939,-0.00020419
 ,-0.05137443,-0.00579827,0.00010439,-0.29587650,-0.15577364,0.00020196
 ,0.01121861,0.03662341,0.00012124,0.75856813,0.02245742,-0.00585432,0.
 00008460,-0.03475096,-0.05024221,-0.00015883,-0.04231347,0.06014651,0.
 00016973,-0.10416778,-0.23304432,0.00006984,0.08252286,-0.01394572,-0.
 00012463,0.00080594,0.67559663,0.00002412,-0.00001790,0.00495193,0.000
 06387,-0.00005225,-0.00672572,0.00001116,0.00006137,0.00034863,0.00012
 375,0.00002339,-0.05656860,0.00011866,-0.00005966,0.00759571,-0.000665
 90,0.00046680,0.14447395,0.00699018,-0.00649370,0.00007880,-0.07758633
 ,-0.04717833,-0.00007097,-0.02773958,0.04169210,0.00002316,0.04144710,
 -0.02237883,-0.00007802,-0.33768391,0.11441499,0.00010675,-0.12855975,
 -0.00358301,-0.00004480,0.75382821,-0.01517468,0.00075969,-0.00005674,
 0.00015124,0.04647733,0.00023339,0.03198993,-0.03118440,-0.00013076,-0
 .05412866,-0.04043257,0.00003281,0.05820325,-0.16046316,-0.00027590,0.
 05439085,-0.30894652,-0.00019480,0.04191611,0.68260317,-0.00008817,0.0
 0009901,-0.00084639,-0.00014047,0.00009015,0.01718226,0.00014490,-0.00
 013605,-0.00839294,-0.00011321,-0.00010058,0.00726318,-0.00013690,-0.0
 0014464,-0.06511905,0.00008742,-0.00029130,-0.06185380,0.00020192,0.00
 086900,0.11799055,0.00500380,-0.01001429,-0.00122110,-0.01693702,0.013
 95120,-0.00126418,-0.06175618,-0.02390594,0.00027269,0.01141194,0.0025
 3471,0.00021486,0.00190597,0.00333665,0.00001350,-0.00186565,-0.005517
 56,-0.00000752,-0.00152902,0.00419103,0.00014188,0.06331527,-0.0347353
 3,-0.04876739,0.00065292,0.01824264,-0.01196730,0.00138330,0.02140087,
 0.04956218,-0.00007254,-0.01680033,-0.00719969,-0.00015919,-0.00371024
 ,-0.00567016,-0.00008851,0.00141403,0.00864039,0.00000549,0.00357588,-
 0.00541576,-0.00013245,0.05234053,0.06138132,0.00205960,-0.00175891,-0
 .03397171,-0.00108297,0.00007668,-0.00164655,-0.00083577,-0.00054037,0
 .00089516,0.00028537,0.00003270,0.00370942,0.00002335,0.00013403,-0.00
 072254,-0.00008622,-0.00017491,0.00090514,-0.00013157,0.00009753,0.000
 36017,0.00558242,0.00542672,0.07095697,0.00290411,-0.00205890,-0.00001
 428,-0.00695797,0.00477629,-0.00002112,0.00359225,0.02971519,-0.000027
 80,-0.06282353,0.03380281,0.00007675,-0.00243850,-0.00135442,0.0000010
 7,0.00784754,-0.02625315,0.00000604,-0.00355979,-0.00293727,0.00000971
 ,-0.00080667,0.00093486,-0.00002780,0.05912583,-0.00044177,0.00145821,
 0.00000919,0.00318506,-0.00047329,0.00002307,-0.00378130,-0.00932539,0
 .00003350,0.03560738,-0.34179384,0.00000583,0.00067971,0.00112564,-0.0
 0000377,0.00461892,-0.01362433,0.00000996,-0.00394170,0.00101985,0.000
 01714,0.00039276,-0.00039126,0.00001179,-0.03583581,0.36167794,-0.0000
 0859,-0.00002390,-0.00243687,0.00003776,-0.00000946,0.00570779,0.00001
 442,-0.00003287,0.00222904,0.00003966,0.00015056,-0.03354927,0.0000167
 7,0.00000489,-0.00062576,-0.00001502,-0.00002777,0.00168230,-0.0000074
 5,-0.00001208,0.00919875,-0.00002312,0.00001654,-0.00031300,-0.0000399
 2,-0.00005683,0.02432196,-0.00089429,-0.00178464,0.00000256,0.00577008
 ,-0.03365661,-0.00007783,-0.00326668,-0.00128217,0.00000763,-0.0003893
 3,-0.00086075,0.00000527,-0.07450850,0.06596117,0.00024690,-0.00624089
 ,0.00125986,0.00000792,0.00145173,0.02872121,0.00009636,0.00082198,-0.
 00075701,0.00001791,0.00021034,0.00001484,-0.00000493,0.07584591,-0.00
 069385,-0.00184469,0.00001767,-0.00354447,-0.02321457,-0.00006700,-0.0
 0291429,0.00382638,-0.00007717,0.00018191,0.00042298,0.00000098,0.0633
 1650,-0.32003651,-0.00096474,0.00259482,0.00074113,-0.00002640,-0.0009
 4252,-0.00581734,-0.00004403,0.00055628,-0.00041763,0.00000486,0.00012
 240,-0.00012120,0.00000489,-0.05923259,0.34608439,0.00003749,-0.000028
 82,-0.00001484,0.00014311,0.00011000,-0.00079669,-0.00000774,0.0000139
 4,0.00865992,0.00004019,0.00001118,-0.00038757,0.00021777,-0.00123030,
 -0.04040604,-0.00002957,-0.00002481,0.00785836,0.00002669,0.00001160,0
 .00661048,-0.00007226,0.00006182,-0.00013486,-0.00000596,0.00000065,-0
 .00164043,-0.00024836,0.00113017,0.02621340,-0.00231656,0.00067797,0.0
 0000740,0.00040244,-0.00068623,0.00000430,-0.00074409,-0.00416461,-0.0
 0001222,-0.01905176,0.01193297,0.00001980,0.00179504,0.00106797,-0.000
 00339,-0.30075624,0.09742474,0.00041665,-0.00050839,-0.00067616,-0.000
 00916,0.00048737,-0.00084337,-0.00000153,0.00130077,-0.00008452,-0.000
 00526,-0.00014556,-0.00008641,0.00000023,0.31908409,-0.00110512,0.0007
 2165,0.00000482,-0.00100985,-0.00013944,-0.00000174,-0.00337169,-0.002
 52967,-0.00000956,-0.01911962,0.01144395,0.00000854,0.00016635,-0.0067
 4549,-0.00001579,0.09795126,-0.09948238,-0.00017599,0.03021046,-0.0057
 7799,-0.00001716,0.00006894,-0.00036585,0.00000066,0.00049975,0.000949
 19,0.00000568,0.00171023,-0.00048570,0.00000340,-0.10533249,0.10089408
 ,0.00000297,-0.00006632,-0.00122488,0.00005103,-0.00000409,-0.00219202
 ,0.00000066,0.00002548,0.01135363,0.00004407,0.00004105,0.00578070,0.0
 0002471,-0.00003984,0.00665984,0.00034245,-0.00018881,-0.04227954,0.00
 002089,0.00001339,0.00481851,-0.00004037,0.00003349,-0.00049851,-0.000
 01151,-0.00001106,-0.00520430,-0.00000240,0.00000239,-0.00050678,-0.00
 042904,0.00019217,0.02677403,0.00061168,-0.00032232,0.00000892,-0.0060
 1622,0.00346169,0.00001296,-0.00042117,0.00151867,-0.00001000,0.001015
 77,0.00171499,-0.00000787,-0.01653776,-0.02279517,-0.00008081,0.008095
 95,0.00565694,0.00000690,-0.23224111,-0.14097421,-0.00029795,-0.000286
 52,0.00059590,-0.00002630,0.00028599,0.00041039,-0.00000176,0.00093818
 ,0.00012863,-0.00000012,0.00067858,-0.00053461,0.00000626,0.24329583,-
 0.00045723,0.00050752,-0.00000210,0.00376348,0.00068075,-0.00002564,0.
 00143663,-0.00130566,0.00000577,0.00280177,-0.00493707,-0.00002160,0.0
 0999020,0.01027397,0.00003967,-0.02597182,-0.01368688,-0.00003116,-0.1
 4223720,-0.17430189,-0.00032616,0.00020348,-0.00032722,0.00000925,-0.0
 0135347,-0.00064733,0.00000018,-0.00056059,0.00057359,0.00000732,0.000
 25517,0.00125749,0.00000759,0.15225795,0.18136653,0.00000446,-0.000039
 33,-0.00098211,-0.00001962,-0.00005156,0.00838509,-0.00001701,0.000034
 76,-0.00028559,0.00000394,-0.00001118,0.00558230,0.00005431,0.00004821
 ,-0.00140948,-0.00002708,0.00002573,0.00013369,-0.00035439,-0.00040044
 ,-0.03014506,0.00001251,-0.00001056,-0.00000896,-0.00000298,0.00000074
 ,0.00070307,-0.00000241,0.00001494,-0.00394013,0.00000109,0.00000654,-
 0.00317065,0.00034953,0.00034799,0.02439941,-0.02518175,0.04105273,0.0
 0044802,-0.08466553,-0.01399782,-0.00266125,-0.00209862,-0.00408470,0.
 00051870,0.00028356,0.00121290,0.00025012,-0.00218641,0.01582752,-0.00
 013208,-0.00049599,-0.00170384,-0.00006632,-0.00551579,-0.00192917,0.0
 0030160,-0.03464588,0.01043872,-0.00126445,-0.00064990,0.00049555,-0.0
 0000651,-0.00020164,-0.00134760,-0.00014215,-0.00033793,0.00004271,-0.
 00004015,-0.00159290,0.00039502,0.00004254,0.30390645,0.09025137,-0.03
 900041,0.00366893,-0.03053062,0.01930310,-0.00384232,-0.03165825,-0.03
 574967,0.00026132,0.01102096,0.00639874,-0.00032981,0.00383757,0.00623
 686,-0.00007434,-0.00097199,-0.00618351,-0.00004393,-0.00334542,0.0035
 8274,0.00025529,-0.03256699,-0.02287389,-0.02638043,-0.00125752,0.0005
 7441,-0.00003067,0.00064569,-0.00004641,-0.00009126,0.00049369,0.00026
 047,0.00006190,-0.00058761,0.00031946,0.00006246,-0.07192052,0.1443445
 2,-0.00411264,0.00498284,0.01608182,-0.00625124,-0.00081567,0.01652121
 ,0.00107635,-0.00025179,-0.00042550,-0.00018761,-0.00000229,-0.0019702
 5,-0.00042812,0.00042066,0.00095194,0.00008890,-0.00001143,0.00010135,
 -0.00010263,-0.00018837,-0.00127923,-0.00474406,-0.00704515,-0.0441377
 7,0.00003649,-0.00000505,0.00017116,0.00000885,-0.00010484,0.00059165,
 0.00000740,0.00000949,0.00029050,-0.00009315,-0.00000579,-0.00025069,0
 .22167645,-0.06987788,0.44467030,0.00068126,0.00211393,0.00194393,-0.0
 0666548,-0.00202206,0.00422380,-0.00049848,-0.00102488,-0.00066061,0.0
 0011629,0.00014856,-0.00053122,-0.00084659,0.00097867,0.00010641,0.000
 03927,-0.00012903,0.00005854,-0.00022507,-0.00028709,-0.00036750,-0.00
 499658,-0.00185461,-0.00724367,0.00000497,0.00002934,0.00001275,-0.000
 04770,-0.00014153,0.00016061,0.00002029,0.00000103,0.00008127,-0.00011
 336,0.00003418,-0.00004466,-0.14572534,0.03670967,-0.20976571,0.156662
 63,0.00684051,-0.00628752,-0.00411441,-0.00567160,0.00057000,0.0021366
 7,-0.00150313,-0.00192158,-0.00007456,0.00044553,0.00025150,0.00034843
 ,-0.00003376,0.00101876,0.00000453,-0.00001693,-0.00021975,0.00002825,
 -0.00036420,-0.00007214,-0.00010899,0.00354580,0.00856582,0.02184150,-
 0.00007341,0.00004340,0.00001044,-0.00003620,-0.00014137,0.00000767,0.
 00002325,0.00000364,-0.00006550,-0.00010865,0.00002591,-0.00002438,0.0
 3454453,-0.04349750,0.06507402,-0.04244693,0.03945639,0.00342894,-0.00
 311370,0.00007187,0.00476700,0.00025210,-0.00008061,-0.00034835,-0.000
 18937,0.00000485,0.00006186,0.00002073,-0.00003874,0.00029536,-0.00041
 435,0.00002965,0.00003199,0.00003368,-0.00001102,0.00019223,0.00010933
 ,0.00000086,-0.00044090,0.00193551,0.00012710,0.00001247,-0.00000679,0
 .00000542,-0.00002373,0.00007330,0.00001949,0.00001129,-0.00000441,0.0
 0001250,0.00008900,-0.00000007,0.00000233,-0.23470996,0.07671407,-0.38
 976059,0.22964080,-0.07386239,0.38853464,-0.04711812,0.00216486,-0.001
 02942,-0.01017597,0.01383918,-0.00140605,0.03164724,0.04182883,0.00000
 372,-0.00895235,-0.00674598,0.00028736,-0.00834533,-0.02223153,0.00007
 222,0.00219395,0.00829103,-0.00005307,0.01143153,-0.00345639,0.0001696
 0,0.03987718,-0.05024254,0.00273164,0.00196458,-0.00134886,-0.00000881
 ,0.00065639,0.00200272,-0.00011994,0.00009196,-0.00017736,-0.00005086,
 0.00228707,-0.00055759,-0.00000021,-0.00089232,0.02987997,0.00279073,0
 .00159388,0.00485517,-0.00300799,-0.01625968,-0.00744781,0.00221172,-0
 .00011355,0.01651057,-0.05770878,0.00056029,0.03271962,-0.00203151,0.0
 0001845,-0.00134661,-0.00475782,0.00003339,-0.01121182,0.00508086,-0.0
 0001698,-0.00023149,0.00010527,0.00000684,-0.00134463,-0.00203101,-0.0
 0002923,-0.00911661,-0.02475356,0.00121889,0.00127263,-0.00047200,0.00
 000039,-0.00014244,0.00047696,0.00001745,-0.00000198,-0.00000395,-0.00
 000184,-0.00042260,0.00020084,-0.00000393,-0.00902605,-0.03366890,0.00
 782124,0.00789075,0.00220442,-0.00154764,-0.01810152,0.11514746,-0.001
 41611,0.00045302,-0.00307165,0.00173022,0.00042136,-0.03586834,0.00041
 450,0.00096510,0.00454712,-0.00017903,-0.00006802,0.00337187,-0.000128
 24,-0.00028450,-0.00365839,0.00005986,0.00015211,-0.00061237,0.0001394
 0,-0.00010797,0.00421173,0.00157564,-0.00200739,0.00447993,0.00000887,
 -0.00002839,-0.00024987,-0.00003372,0.00003498,-0.00212596,-0.00000756
 ,-0.00000666,-0.00061301,0.00004439,-0.00000524,0.00098677,0.01578544,
 0.01964666,-0.04155590,-0.01761474,-0.01120129,0.00108224,-0.00037891,
 -0.00796377,0.06907584\\0.00003668,-0.00004176,0.00004940,0.00004174,0
 .00000024,-0.00000284,0.00000025,-0.00000408,-0.00000898,0.00000271,0.
 00000051,-0.00000700,-0.00000229,-0.00000301,-0.00000873,0.00000127,0.
 00000732,-0.00000011,-0.00000215,0.00000505,-0.00000234,0.00001362,-0.
 00001905,-0.00006665,0.00000780,0.00000343,-0.00000707,-0.00000685,0.0
 0000125,0.00000512,0.00000294,0.00000909,-0.00000405,-0.00000455,0.000
 00785,0.00000189,-0.00009699,0.00002111,0.00000626,0.00000080,-0.00001
 239,0.00000467,0.00000503,0.00002444,0.00004043\\\@


 MOM AND DAD WENT TO ALPHA CENTAURI AND ALL
 I GOT WAS THIS DUMB T-SHIRT.
 Job cpu time:       0 days  1 hours 32 minutes 46.7 seconds.
 File lengths (MBytes):  RWF=    137 Int=      0 D2E=      0 Chk=      9 Scr=      1
 Normal termination of Gaussian 09 at Sat Aug 28 14:08:34 2021.
