 Entering Gaussian System, Link 0=g09
 AtFile(1): pc-2.gbs
            -H     0
            S    4   1.00
                  0.754230D+02           0.240650D-02
                  0.113500D+02           0.184870D-01
                  0.259930D+01           0.897420D-01
                  0.735130D+00           0.281110D+00
            S    1   1.00
                  0.231670D+00           0.100000D+01
            S    1   1.00
                  0.741470D-01           0.100000D+01
            P    1   1.00
                  0.160000D+01           0.100000D+01
            P    1   1.00
                  0.450000D+00           0.100000D+01
            D    1   1.00
                  0.125000D+01           0.100000D+01
            ****
            -C     0
            S    7   1.00
                  0.785710D+04           0.568250D-03
                  0.117870D+04           0.439150D-02
                  0.268320D+03           0.225040D-01
                  0.759480D+02           0.866530D-01
                  0.245590D+02           0.244050D+00
                  0.862120D+01           0.441480D+00
                  0.312780D+01           0.353320D+00
            S    7   1.00
                  0.117870D+04          -0.594920D-06
                  0.268320D+03          -0.627480D-04
                  0.759480D+02          -0.757730D-03
                  0.245590D+02          -0.733080D-02
                  0.862120D+01          -0.389320D-01
                  0.312780D+01          -0.889080D-01
                  0.822020D+00           0.216890D+00
            S    1   1.00
                  0.330170D+00           0.100000D+01
            S    1   1.00
                  0.114630D+00           0.100000D+01
            P    4   1.00
                  0.337750D+02           0.602940D-02
                  0.767660D+01           0.432280D-01
                  0.223570D+01           0.163010D+00
                  0.764470D+00           0.365040D+00
            P    1   1.00
                  0.262320D+00           0.100000D+01
            P    1   1.00
                  0.846380D-01           0.100000D+01
            D    1   1.00
                  0.140000D+01           0.100000D+01
            D    1   1.00
                  0.450000D+00           0.100000D+01
            F    1   1.00
                  0.950000D+00           0.100000D+01
            ****
            -N     0
            S    7   1.00
                  0.111010D+05           0.545700D-03
                  0.166530D+04           0.421810D-02
                  0.379080D+03           0.216450D-01
                  0.107300D+03           0.837760D-01
                  0.347470D+02           0.238810D+00
                  0.122490D+02           0.439940D+00
                  0.447430D+01           0.363640D+00
            S    7   1.00
                  0.166530D+04          -0.150060D-05
                  0.379080D+03          -0.587530D-04
                  0.107300D+03          -0.774530D-03
                  0.347470D+02          -0.721610D-02
                  0.122490D+02          -0.393380D-01
                  0.447430D+01          -0.906110D-01
                  0.124040D+01           0.198820D+00
            S    1   1.00
                  0.487430D+00           0.100000D+01
            S    1   1.00
                  0.164840D+00           0.100000D+01
            P    4   1.00
                  0.479340D+02           0.617060D-02
                  0.109990D+02           0.442600D-01
                  0.324720D+01           0.168250D+00
                  0.111140D+01           0.368480D+00
            P    1   1.00
                  0.379880D+00           0.100000D+01
            P    1   1.00
                  0.120680D+00           0.100000D+01
            D    1   1.00
                  0.180000D+01           0.100000D+01
            D    1   1.00
                  0.550000D+00           0.100000D+01
            F    1   1.00
                  0.102000D+01           0.100000D+01
            ****
            -O     0
            S    7   1.00
                  0.147820D+05           0.535190D-03
                  0.221730D+04           0.413750D-02
                  0.504740D+03           0.212450D-01
                  0.142870D+03           0.824530D-01
                  0.463000D+02           0.236710D+00
                  0.163370D+02           0.440390D+00
                  0.598280D+01           0.364650D+00
            S    7   1.00
                  0.221730D+04          -0.192750D-05
                  0.504740D+03          -0.579640D-04
                  0.142870D+03          -0.794940D-03
                  0.463000D+02          -0.731250D-02
                  0.163370D+02          -0.405740D-01
                  0.598280D+01          -0.915940D-01
                  0.167180D+01           0.209400D+00
            S    1   1.00
                  0.646620D+00           0.100000D+01
            S    1   1.00
                  0.216690D+00           0.100000D+01
            P    4   1.00
                  0.604240D+02           0.689490D-02
                  0.139350D+02           0.490050D-01
                  0.415310D+01           0.182550D+00
                  0.141580D+01           0.376330D+00
            P    1   1.00
                  0.475490D+00           0.100000D+01
            P    1   1.00
                  0.145290D+00           0.100000D+01
            D    1   1.00
                  0.220000D+01           0.100000D+01
            D    1   1.00
                  0.650000D+00           0.100000D+01
            F    1   1.00
                  0.110000D+01           0.100000D+01
            ****
 Initial command:
 /public3/home/sc51754/softwares/g09e01/l1.exe "./Gau-65379.inp" -scrdir="./"
 Entering Link 1 = /public3/home/sc51754/softwares/g09e01/l1.exe PID=     65380.
  
 Copyright (c) 1988,1990,1992,1993,1995,1998,2003,2009,2015,
            Gaussian, Inc.  All Rights Reserved.
  
 This is part of the Gaussian(R) 09 program.  It is based on
 the Gaussian(R) 03 system (copyright 2003, Gaussian, Inc.),
 the Gaussian(R) 98 system (copyright 1998, Gaussian, Inc.),
 the Gaussian(R) 94 system (copyright 1995, Gaussian, Inc.),
 the Gaussian 92(TM) system (copyright 1992, Gaussian, Inc.),
 the Gaussian 90(TM) system (copyright 1990, Gaussian, Inc.),
 the Gaussian 88(TM) system (copyright 1988, Gaussian, Inc.),
 the Gaussian 86(TM) system (copyright 1986, Carnegie Mellon
 University), and the Gaussian 82(TM) system (copyright 1983,
 Carnegie Mellon University). Gaussian is a federally registered
 trademark of Gaussian, Inc.
  
 This software contains proprietary and confidential information,
 including trade secrets, belonging to Gaussian, Inc.
  
 This software is provided under written license and may be
 used, copied, transmitted, or stored only in accord with that
 written license.
  
 The following legend is applicable only to US Government
 contracts under FAR:
  
                    RESTRICTED RIGHTS LEGEND
  
 Use, reproduction and disclosure by the US Government is
 subject to restrictions as set forth in subparagraphs (a)
 and (c) of the Commercial Computer Software - Restricted
 Rights clause in FAR 52.227-19.
  
 Gaussian, Inc.
 340 Quinnipiac St., Bldg. 40, Wallingford CT 06492
  
  
 ---------------------------------------------------------------
 Warning -- This program may not be used in any manner that
 competes with the business of Gaussian, Inc. or will provide
 assistance to any competitor of Gaussian, Inc.  The licensee
 of this program is prohibited from giving any competitor of
 Gaussian, Inc. access to this program.  By using this program,
 the user acknowledges that Gaussian, Inc. is engaged in the
 business of creating and licensing software in the field of
 computational chemistry and represents and warrants to the
 licensee that it is not a competitor of Gaussian, Inc. and that
 it will not use this program in any manner prohibited above.
 ---------------------------------------------------------------
  

 Cite this work as:
 Gaussian 09, Revision E.01,
 M. J. Frisch, G. W. Trucks, H. B. Schlegel, G. E. Scuseria, 
 M. A. Robb, J. R. Cheeseman, G. Scalmani, V. Barone, B. Mennucci, 
 G. A. Petersson, H. Nakatsuji, M. Caricato, X. Li, H. P. Hratchian, 
 A. F. Izmaylov, J. Bloino, G. Zheng, J. L. Sonnenberg, M. Hada, 
 M. Ehara, K. Toyota, R. Fukuda, J. Hasegawa, M. Ishida, T. Nakajima, 
 Y. Honda, O. Kitao, H. Nakai, T. Vreven, J. A. Montgomery, Jr., 
 J. E. Peralta, F. Ogliaro, M. Bearpark, J. J. Heyd, E. Brothers, 
 K. N. Kudin, V. N. Staroverov, T. Keith, R. Kobayashi, J. Normand, 
 K. Raghavachari, A. Rendell, J. C. Burant, S. S. Iyengar, J. Tomasi, 
 M. Cossi, N. Rega, J. M. Millam, M. Klene, J. E. Knox, J. B. Cross, 
 V. Bakken, C. Adamo, J. Jaramillo, R. Gomperts, R. E. Stratmann, 
 O. Yazyev, A. J. Austin, R. Cammi, C. Pomelli, J. W. Ochterski, 
 R. L. Martin, K. Morokuma, V. G. Zakrzewski, G. A. Voth, 
 P. Salvador, J. J. Dannenberg, S. Dapprich, A. D. Daniels, 
 O. Farkas, J. B. Foresman, J. V. Ortiz, J. Cioslowski, 
 and D. J. Fox, Gaussian, Inc., Wallingford CT, 2013.
 
 ******************************************
 Gaussian 09:  EM64L-G09RevE.01 30-Nov-2015
                27-Aug-2021 
 ******************************************
 %nprocshared=64
 Will use up to   64 processors via shared memory.
 %mem=128GB
 %chk=HY_TPSSTPSS_PC2_OPT_FREQ.chk
 ------------------------
 #p opt freq TPSSTPSS/gen
 ------------------------
 1/14=-1,18=20,19=15,26=3,38=1/1,3;
 2/9=110,12=2,17=6,18=5,40=1/2;
 3/5=7,11=2,16=1,25=1,30=1,71=1,74=2523/1,2,3;
 4//1;
 5/5=2,38=5/2;
 6/7=2,8=2,9=2,10=2,28=1/1;
 7//1,2,3,16;
 1/14=-1,18=20,19=15,26=3/3(2);
 2/9=110/2;
 99//99;
 2/9=110/2;
 3/5=7,6=1,11=2,16=1,25=1,30=1,71=1,74=2523,82=7/1,2,3;
 4/5=5,16=3,69=1/1;
 5/5=2,38=5/2;
 7//1,2,3,16;
 1/14=-1,18=20,19=15,26=3/3(-5);
 2/9=110/2;
 6/7=2,8=2,9=2,10=2,19=2,28=1/1;
 99/9=1/99;
 Leave Link    1 at Fri Aug 27 00:03:16 2021, MaxMem= 17179869184 cpu:         4.6
 (Enter /public3/home/sc51754/softwares/g09e01/l101.exe)
 ------------------------
 HY_TPSSTPSS_PC2_OPT_FREQ
 ------------------------
 Symbolic Z-matrix:
 Charge =  0 Multiplicity = 1
 O                     0.00837   2.23974   0. 
 N                    -1.17143   0.29602   0. 
 C                     0.        0.89831   0. 
 C                     1.21926   0.22535   0. 
 C                    -1.18415  -1.03535   0. 
 C                     1.18363  -1.14867   0. 
 C                    -0.04131  -1.80488   0. 
 H                    -0.91394   2.51588   0. 
 H                     2.14363   0.78426   0. 
 H                    -2.16362  -1.50192   0. 
 H                     2.10659  -1.71377   0. 
 H                    -0.10426  -2.88308   0. 
 
 NAtoms=     12 NQM=       12 NQMF=       0 NMMI=      0 NMMIF=      0
                NMic=       0 NMicF=      0.
                    Isotopes and Nuclear Properties:
 (Nuclear quadrupole moments (NQMom) in fm**2, nuclear magnetic moments (NMagM)
  in nuclear magnetons)

  Atom         1           2           3           4           5           6           7           8           9          10
 IAtWgt=          16          14          12          12          12          12          12           1           1           1
 AtmWgt=  15.9949146  14.0030740  12.0000000  12.0000000  12.0000000  12.0000000  12.0000000   1.0078250   1.0078250   1.0078250
 NucSpn=           0           2           0           0           0           0           0           1           1           1
 AtZEff=   0.0000000   0.0000000   0.0000000   0.0000000   0.0000000   0.0000000   0.0000000   0.0000000   0.0000000   0.0000000
 NQMom=    0.0000000   2.0440000   0.0000000   0.0000000   0.0000000   0.0000000   0.0000000   0.0000000   0.0000000   0.0000000
 NMagM=    0.0000000   0.4037610   0.0000000   0.0000000   0.0000000   0.0000000   0.0000000   2.7928460   2.7928460   2.7928460
 AtZNuc=   8.0000000   7.0000000   6.0000000   6.0000000   6.0000000   6.0000000   6.0000000   1.0000000   1.0000000   1.0000000

  Atom        11          12
 IAtWgt=           1           1
 AtmWgt=   1.0078250   1.0078250
 NucSpn=           1           1
 AtZEff=   0.0000000   0.0000000
 NQMom=    0.0000000   0.0000000
 NMagM=    2.7928460   2.7928460
 AtZNuc=   1.0000000   1.0000000
 Leave Link  101 at Fri Aug 27 00:03:16 2021, MaxMem= 17179869184 cpu:         5.7
 (Enter /public3/home/sc51754/softwares/g09e01/l103.exe)

 GradGradGradGradGradGradGradGradGradGradGradGradGradGradGradGradGradGrad
 Berny optimization.
 Initialization pass.
                           ----------------------------
                           !    Initial Parameters    !
                           ! (Angstroms and Degrees)  !
 --------------------------                            --------------------------
 ! Name  Definition              Value          Derivative Info.                !
 --------------------------------------------------------------------------------
 ! R1    R(1,3)                  1.3415         estimate D2E/DX2                !
 ! R2    R(1,8)                  0.9628         estimate D2E/DX2                !
 ! R3    R(2,3)                  1.3172         estimate D2E/DX2                !
 ! R4    R(2,5)                  1.3314         estimate D2E/DX2                !
 ! R5    R(3,4)                  1.3927         estimate D2E/DX2                !
 ! R6    R(4,6)                  1.3745         estimate D2E/DX2                !
 ! R7    R(4,9)                  1.0802         estimate D2E/DX2                !
 ! R8    R(5,7)                  1.3778         estimate D2E/DX2                !
 ! R9    R(5,10)                 1.0849         estimate D2E/DX2                !
 ! R10   R(6,7)                  1.3896         estimate D2E/DX2                !
 ! R11   R(6,11)                 1.0822         estimate D2E/DX2                !
 ! R12   R(7,12)                 1.08           estimate D2E/DX2                !
 ! A1    A(3,1,8)              106.3104         estimate D2E/DX2                !
 ! A2    A(3,2,5)              117.7571         estimate D2E/DX2                !
 ! A3    A(1,3,2)              117.5674         estimate D2E/DX2                !
 ! A4    A(1,3,4)              118.5383         estimate D2E/DX2                !
 ! A5    A(2,3,4)              123.8942         estimate D2E/DX2                !
 ! A6    A(3,4,6)              117.4104         estimate D2E/DX2                !
 ! A7    A(3,4,9)              119.945          estimate D2E/DX2                !
 ! A8    A(6,4,9)              122.6446         estimate D2E/DX2                !
 ! A9    A(2,5,7)              123.4071         estimate D2E/DX2                !
 ! A10   A(2,5,10)             116.018          estimate D2E/DX2                !
 ! A11   A(7,5,10)             120.5749         estimate D2E/DX2                !
 ! A12   A(4,6,7)              119.6636         estimate D2E/DX2                !
 ! A13   A(4,6,11)             119.9925         estimate D2E/DX2                !
 ! A14   A(7,6,11)             120.3439         estimate D2E/DX2                !
 ! A15   A(5,7,6)              117.8675         estimate D2E/DX2                !
 ! A16   A(5,7,12)             120.6134         estimate D2E/DX2                !
 ! A17   A(6,7,12)             121.519          estimate D2E/DX2                !
 ! D1    D(8,1,3,2)              0.0            estimate D2E/DX2                !
 ! D2    D(8,1,3,4)            180.0            estimate D2E/DX2                !
 ! D3    D(5,2,3,1)            180.0            estimate D2E/DX2                !
 ! D4    D(5,2,3,4)              0.0            estimate D2E/DX2                !
 ! D5    D(3,2,5,7)              0.0            estimate D2E/DX2                !
 ! D6    D(3,2,5,10)           180.0            estimate D2E/DX2                !
 ! D7    D(1,3,4,6)            180.0            estimate D2E/DX2                !
 ! D8    D(1,3,4,9)              0.0            estimate D2E/DX2                !
 ! D9    D(2,3,4,6)              0.0            estimate D2E/DX2                !
 ! D10   D(2,3,4,9)            180.0            estimate D2E/DX2                !
 ! D11   D(3,4,6,7)              0.0            estimate D2E/DX2                !
 ! D12   D(3,4,6,11)           180.0            estimate D2E/DX2                !
 ! D13   D(9,4,6,7)            180.0            estimate D2E/DX2                !
 ! D14   D(9,4,6,11)             0.0            estimate D2E/DX2                !
 ! D15   D(2,5,7,6)              0.0            estimate D2E/DX2                !
 ! D16   D(2,5,7,12)           180.0            estimate D2E/DX2                !
 ! D17   D(10,5,7,6)           180.0            estimate D2E/DX2                !
 ! D18   D(10,5,7,12)            0.0            estimate D2E/DX2                !
 ! D19   D(4,6,7,5)              0.0            estimate D2E/DX2                !
 ! D20   D(4,6,7,12)           180.0            estimate D2E/DX2                !
 ! D21   D(11,6,7,5)           180.0            estimate D2E/DX2                !
 ! D22   D(11,6,7,12)            0.0            estimate D2E/DX2                !
 --------------------------------------------------------------------------------
 Trust Radius=3.00D-01 FncErr=1.00D-07 GrdErr=1.00D-06
 Number of steps in this run=     61 maximum allowed number of steps=    100.
 GradGradGradGradGradGradGradGradGradGradGradGradGradGradGradGradGradGrad

 Leave Link  103 at Fri Aug 27 00:03:16 2021, MaxMem= 17179869184 cpu:         0.1
 (Enter /public3/home/sc51754/softwares/g09e01/l202.exe)
                          Input orientation:                          
 ---------------------------------------------------------------------
 Center     Atomic      Atomic             Coordinates (Angstroms)
 Number     Number       Type             X           Y           Z
 ---------------------------------------------------------------------
      1          8           0        0.008372    2.239736    0.000000
      2          7           0       -1.171427    0.296023    0.000000
      3          6           0        0.000000    0.898309    0.000000
      4          6           0        1.219264    0.225352    0.000000
      5          6           0       -1.184145   -1.035351    0.000000
      6          6           0        1.183632   -1.148671    0.000000
      7          6           0       -0.041314   -1.804878    0.000000
      8          1           0       -0.913944    2.515883    0.000000
      9          1           0        2.143627    0.784264    0.000000
     10          1           0       -2.163617   -1.501920    0.000000
     11          1           0        2.106589   -1.713772    0.000000
     12          1           0       -0.104256   -2.883075    0.000000
 ---------------------------------------------------------------------
                    Distance matrix (angstroms):
                    1          2          3          4          5
     1  O    0.000000
     2  N    2.273752   0.000000
     3  C    1.341453   1.317190   0.000000
     4  C    2.350320   2.391735   1.392651   0.000000
     5  C    3.485440   1.331435   2.267430   2.713991   0.000000
     6  C    3.586438   2.762869   2.364553   1.374485   2.370487
     7  C    4.044919   2.385569   2.703503   2.389747   1.377764
     8  H    0.962769   2.234743   1.857913   3.130033   3.561498
     9  H    2.584127   3.350815   2.146659   1.080199   3.792765
    10  H    4.326376   2.053543   3.231461   3.798335   1.084920
    11  H    4.475795   3.845083   3.355694   2.132498   3.359938
    12  H    5.124049   3.353434   3.782821   3.378465   2.140151
                    6          7          8          9         10
     6  C    0.000000
     7  C    1.389640   0.000000
     8  H    4.222414   4.407999   0.000000
     9  H    2.158200   3.387864   3.513865   0.000000
    10  H    3.365837   2.143818   4.207662   4.876370   0.000000
    11  H    1.082215   2.149834   5.197461   2.498311   4.275458
    12  H    2.160281   1.080033   5.459335   4.301436   2.479628
                   11         12
    11  H    0.000000
    12  H    2.501021   0.000000
 Stoichiometry    C5H5NO
 Framework group  CS[SG(C5H5NO)]
 Deg. of freedom    21
 Full point group                 CS      NOp   2
 Largest Abelian subgroup         CS      NOp   2
 Largest concise Abelian subgroup C1      NOp   1
                         Standard orientation:                         
 ---------------------------------------------------------------------
 Center     Atomic      Atomic             Coordinates (Angstroms)
 Number     Number       Type             X           Y           Z
 ---------------------------------------------------------------------
      1          8           0        0.008372    2.239736    0.000000
      2          7           0       -1.171427    0.296023    0.000000
      3          6           0       -0.000000    0.898309    0.000000
      4          6           0        1.219264    0.225352    0.000000
      5          6           0       -1.184145   -1.035351    0.000000
      6          6           0        1.183632   -1.148671    0.000000
      7          6           0       -0.041314   -1.804878    0.000000
      8          1           0       -0.913944    2.515883    0.000000
      9          1           0        2.143627    0.784264    0.000000
     10          1           0       -2.163617   -1.501920    0.000000
     11          1           0        2.106589   -1.713772    0.000000
     12          1           0       -0.104257   -2.883075    0.000000
 ---------------------------------------------------------------------
 Rotational constants (GHZ):      5.9244098      2.8053779      1.9038502
 Leave Link  202 at Fri Aug 27 00:03:16 2021, MaxMem= 17179869184 cpu:         4.3
 (Enter /public3/home/sc51754/softwares/g09e01/l301.exe)
 General basis read from cards:  (5D, 7F)
 Centers:       8      9     10     11     12
 S 4 1.00
     Exponent=  7.5423000000D+01 Coefficients=  2.4065000000D-03
     Exponent=  1.1350000000D+01 Coefficients=  1.8487000000D-02
     Exponent=  2.5993000000D+00 Coefficients=  8.9742000000D-02
     Exponent=  7.3513000000D-01 Coefficients=  2.8111000000D-01
 S 1 1.00
     Exponent=  2.3167000000D-01 Coefficients=  1.0000000000D+00
 S 1 1.00
     Exponent=  7.4147000000D-02 Coefficients=  1.0000000000D+00
 P 1 1.00
     Exponent=  1.6000000000D+00 Coefficients=  1.0000000000D+00
 P 1 1.00
     Exponent=  4.5000000000D-01 Coefficients=  1.0000000000D+00
 D 1 1.00
     Exponent=  1.2500000000D+00 Coefficients=  1.0000000000D+00
 ****
 Centers:       3      4      5      6      7
 S 7 1.00
     Exponent=  7.8571000000D+03 Coefficients=  5.6825000000D-04
     Exponent=  1.1787000000D+03 Coefficients=  4.3915000000D-03
     Exponent=  2.6832000000D+02 Coefficients=  2.2504000000D-02
     Exponent=  7.5948000000D+01 Coefficients=  8.6653000000D-02
     Exponent=  2.4559000000D+01 Coefficients=  2.4405000000D-01
     Exponent=  8.6212000000D+00 Coefficients=  4.4148000000D-01
     Exponent=  3.1278000000D+00 Coefficients=  3.5332000000D-01
 S 7 1.00
     Exponent=  1.1787000000D+03 Coefficients= -5.9492000000D-07
     Exponent=  2.6832000000D+02 Coefficients= -6.2748000000D-05
     Exponent=  7.5948000000D+01 Coefficients= -7.5773000000D-04
     Exponent=  2.4559000000D+01 Coefficients= -7.3308000000D-03
     Exponent=  8.6212000000D+00 Coefficients= -3.8932000000D-02
     Exponent=  3.1278000000D+00 Coefficients= -8.8908000000D-02
     Exponent=  8.2202000000D-01 Coefficients=  2.1689000000D-01
 S 1 1.00
     Exponent=  3.3017000000D-01 Coefficients=  1.0000000000D+00
 S 1 1.00
     Exponent=  1.1463000000D-01 Coefficients=  1.0000000000D+00
 P 4 1.00
     Exponent=  3.3775000000D+01 Coefficients=  6.0294000000D-03
     Exponent=  7.6766000000D+00 Coefficients=  4.3228000000D-02
     Exponent=  2.2357000000D+00 Coefficients=  1.6301000000D-01
     Exponent=  7.6447000000D-01 Coefficients=  3.6504000000D-01
 P 1 1.00
     Exponent=  2.6232000000D-01 Coefficients=  1.0000000000D+00
 P 1 1.00
     Exponent=  8.4638000000D-02 Coefficients=  1.0000000000D+00
 D 1 1.00
     Exponent=  1.4000000000D+00 Coefficients=  1.0000000000D+00
 D 1 1.00
     Exponent=  4.5000000000D-01 Coefficients=  1.0000000000D+00
 F 1 1.00
     Exponent=  9.5000000000D-01 Coefficients=  1.0000000000D+00
 ****
 Centers:       2
 S 7 1.00
     Exponent=  1.1101000000D+04 Coefficients=  5.4570000000D-04
     Exponent=  1.6653000000D+03 Coefficients=  4.2181000000D-03
     Exponent=  3.7908000000D+02 Coefficients=  2.1645000000D-02
     Exponent=  1.0730000000D+02 Coefficients=  8.3776000000D-02
     Exponent=  3.4747000000D+01 Coefficients=  2.3881000000D-01
     Exponent=  1.2249000000D+01 Coefficients=  4.3994000000D-01
     Exponent=  4.4743000000D+00 Coefficients=  3.6364000000D-01
 S 7 1.00
     Exponent=  1.6653000000D+03 Coefficients= -1.5006000000D-06
     Exponent=  3.7908000000D+02 Coefficients= -5.8753000000D-05
     Exponent=  1.0730000000D+02 Coefficients= -7.7453000000D-04
     Exponent=  3.4747000000D+01 Coefficients= -7.2161000000D-03
     Exponent=  1.2249000000D+01 Coefficients= -3.9338000000D-02
     Exponent=  4.4743000000D+00 Coefficients= -9.0611000000D-02
     Exponent=  1.2404000000D+00 Coefficients=  1.9882000000D-01
 S 1 1.00
     Exponent=  4.8743000000D-01 Coefficients=  1.0000000000D+00
 S 1 1.00
     Exponent=  1.6484000000D-01 Coefficients=  1.0000000000D+00
 P 4 1.00
     Exponent=  4.7934000000D+01 Coefficients=  6.1706000000D-03
     Exponent=  1.0999000000D+01 Coefficients=  4.4260000000D-02
     Exponent=  3.2472000000D+00 Coefficients=  1.6825000000D-01
     Exponent=  1.1114000000D+00 Coefficients=  3.6848000000D-01
 P 1 1.00
     Exponent=  3.7988000000D-01 Coefficients=  1.0000000000D+00
 P 1 1.00
     Exponent=  1.2068000000D-01 Coefficients=  1.0000000000D+00
 D 1 1.00
     Exponent=  1.8000000000D+00 Coefficients=  1.0000000000D+00
 D 1 1.00
     Exponent=  5.5000000000D-01 Coefficients=  1.0000000000D+00
 F 1 1.00
     Exponent=  1.0200000000D+00 Coefficients=  1.0000000000D+00
 ****
 Centers:       1
 S 7 1.00
     Exponent=  1.4782000000D+04 Coefficients=  5.3519000000D-04
     Exponent=  2.2173000000D+03 Coefficients=  4.1375000000D-03
     Exponent=  5.0474000000D+02 Coefficients=  2.1245000000D-02
     Exponent=  1.4287000000D+02 Coefficients=  8.2453000000D-02
     Exponent=  4.6300000000D+01 Coefficients=  2.3671000000D-01
     Exponent=  1.6337000000D+01 Coefficients=  4.4039000000D-01
     Exponent=  5.9828000000D+00 Coefficients=  3.6465000000D-01
 S 7 1.00
     Exponent=  2.2173000000D+03 Coefficients= -1.9275000000D-06
     Exponent=  5.0474000000D+02 Coefficients= -5.7964000000D-05
     Exponent=  1.4287000000D+02 Coefficients= -7.9494000000D-04
     Exponent=  4.6300000000D+01 Coefficients= -7.3125000000D-03
     Exponent=  1.6337000000D+01 Coefficients= -4.0574000000D-02
     Exponent=  5.9828000000D+00 Coefficients= -9.1594000000D-02
     Exponent=  1.6718000000D+00 Coefficients=  2.0940000000D-01
 S 1 1.00
     Exponent=  6.4662000000D-01 Coefficients=  1.0000000000D+00
 S 1 1.00
     Exponent=  2.1669000000D-01 Coefficients=  1.0000000000D+00
 P 4 1.00
     Exponent=  6.0424000000D+01 Coefficients=  6.8949000000D-03
     Exponent=  1.3935000000D+01 Coefficients=  4.9005000000D-02
     Exponent=  4.1531000000D+00 Coefficients=  1.8255000000D-01
     Exponent=  1.4158000000D+00 Coefficients=  3.7633000000D-01
 P 1 1.00
     Exponent=  4.7549000000D-01 Coefficients=  1.0000000000D+00
 P 1 1.00
     Exponent=  1.4529000000D-01 Coefficients=  1.0000000000D+00
 D 1 1.00
     Exponent=  2.2000000000D+00 Coefficients=  1.0000000000D+00
 D 1 1.00
     Exponent=  6.5000000000D-01 Coefficients=  1.0000000000D+00
 F 1 1.00
     Exponent=  1.1000000000D+00 Coefficients=  1.0000000000D+00
 ****
 Ernie: Thresh=  0.10000D-02 Tol=  0.10000D-05 Strict=F.
 Ernie:  7 primitive shells out of 220 were deleted.
 There are   223 symmetry adapted cartesian basis functions of A'  symmetry.
 There are    97 symmetry adapted cartesian basis functions of A"  symmetry.
 There are   190 symmetry adapted basis functions of A'  symmetry.
 There are    90 symmetry adapted basis functions of A"  symmetry.
   280 basis functions,   475 primitive gaussians,   320 cartesian basis functions
    25 alpha electrons       25 beta electrons
       nuclear repulsion energy       277.5236709615 Hartrees.
 IExCor= 2523 DFT=T Ex=TPSS Corr=TPSS ExCW=0 ScaHFX=  0.000000
 ScaDFX=  1.000000  1.000000  1.000000  1.000000 ScalE2=  1.000000  1.000000
 IRadAn=      0 IRanWt=     -1 IRanGd=            0 ICorTp=0 IEmpDi=  4
 NAtoms=   12 NActive=   12 NUniq=   12 SFac= 1.00D+00 NAtFMM=   60 NAOKFM=F Big=F
 Integral buffers will be    131072 words long.
 Raffenetti 2 integral format.
 Two-electron integral symmetry is turned on.
 Leave Link  301 at Fri Aug 27 00:03:16 2021, MaxMem= 17179869184 cpu:         1.4
 (Enter /public3/home/sc51754/softwares/g09e01/l302.exe)
 NPDir=0 NMtPBC=     1 NCelOv=     1 NCel=       1 NClECP=     1 NCelD=      1
         NCelK=      1 NCelE2=     1 NClLst=     1 CellRange=     0.0.
 One-electron integrals computed using PRISM.
 NBasis=   280 RedAO= T EigKep=  2.16D-04  NBF=   190    90
 NBsUse=   280 1.00D-06 EigRej= -1.00D+00 NBFU=   190    90
 Precomputing XC quadrature grid using
 IXCGrd= 4 IRadAn=           0 IRanWt=          -1 IRanGd=           0 AccXCQ= 0.00D+00.
 Generated NRdTot=       0 NPtTot=           0 NUsed=           0 NTot=          32
 NSgBfM=   320   320   320   320   320 MxSgAt=    12 MxSgA2=    12.
 Leave Link  302 at Fri Aug 27 00:03:17 2021, MaxMem= 17179869184 cpu:        38.4
 (Enter /public3/home/sc51754/softwares/g09e01/l303.exe)
 DipDrv:  MaxL=1.
 Leave Link  303 at Fri Aug 27 00:03:17 2021, MaxMem= 17179869184 cpu:        15.0
 (Enter /public3/home/sc51754/softwares/g09e01/l401.exe)
 ExpMin= 7.41D-02 ExpMax= 1.48D+04 ExpMxC= 5.05D+02 IAcc=2 IRadAn=         4 AccDes= 0.00D+00
 Harris functional with IExCor= 1009 and IRadAn=       4 diagonalized for initial guess.
 HarFok:  IExCor= 1009 AccDes= 0.00D+00 IRadAn=         4 IDoV= 1 UseB2=F ITyADJ=14
 ICtDFT=  3500011 ScaDFX=  1.000000  1.000000  1.000000  1.000000
 FoFCou: FMM=F IPFlag=           0 FMFlag=      100000 FMFlg1=           0
         NFxFlg=           0 DoJE=T BraDBF=F KetDBF=T FulRan=T
         wScrn=  0.000000 ICntrl=     500 IOpCl=  0 I1Cent=   200000004 NGrid=           0
         NMat0=    1 NMatS0=      1 NMatT0=    0 NMatD0=    1 NMtDS0=    0 NMtDT0=    0
 Petite list used in FoFCou.
 Harris En= -323.373786825503    
 JPrj=0 DoOrth=F DoCkMO=F.
 Initial guess orbital symmetries:
       Occupied  (A') (A') (A') (A') (A') (A') (A') (A') (A') (A')
                 (A') (A') (A') (A') (A') (A') (A') (A') (A") (A')
                 (A') (A") (A") (A') (A")
       Virtual   (A") (A") (A') (A') (A") (A') (A') (A') (A') (A')
                 (A') (A') (A") (A') (A") (A") (A') (A') (A') (A')
                 (A') (A') (A") (A") (A') (A') (A') (A') (A') (A')
                 (A') (A") (A') (A") (A') (A') (A') (A') (A') (A')
                 (A') (A') (A") (A') (A') (A') (A') (A") (A") (A')
                 (A") (A") (A') (A') (A") (A') (A') (A") (A') (A')
                 (A') (A") (A') (A') (A") (A') (A") (A') (A") (A')
                 (A') (A") (A") (A') (A") (A') (A') (A") (A') (A')
                 (A") (A') (A') (A") (A') (A') (A") (A') (A") (A")
                 (A') (A') (A') (A') (A') (A") (A') (A') (A") (A')
                 (A') (A') (A") (A') (A') (A') (A') (A") (A') (A')
                 (A') (A") (A') (A') (A') (A') (A") (A') (A') (A')
                 (A") (A') (A") (A') (A") (A') (A") (A") (A') (A")
                 (A") (A') (A') (A') (A") (A') (A') (A") (A') (A')
                 (A') (A') (A') (A") (A") (A') (A") (A') (A') (A')
                 (A") (A') (A') (A") (A") (A') (A") (A') (A") (A')
                 (A") (A') (A') (A') (A") (A") (A') (A') (A") (A')
                 (A") (A') (A') (A") (A') (A') (A") (A') (A") (A")
                 (A") (A") (A') (A') (A") (A') (A") (A") (A') (A")
                 (A") (A') (A') (A") (A') (A') (A") (A') (A") (A")
                 (A') (A') (A") (A') (A') (A') (A") (A') (A') (A')
                 (A") (A') (A') (A") (A') (A") (A') (A') (A") (A")
                 (A') (A') (A") (A') (A') (A") (A') (A') (A') (A')
                 (A") (A') (A') (A') (A') (A") (A") (A') (A') (A')
                 (A') (A") (A') (A') (A') (A') (A') (A') (A') (A')
                 (A') (A') (A') (A') (A')
 The electronic state of the initial guess is 1-A'.
 Leave Link  401 at Fri Aug 27 00:03:18 2021, MaxMem= 17179869184 cpu:        46.9
 (Enter /public3/home/sc51754/softwares/g09e01/l502.exe)
 Closed shell SCF:
 Using DIIS extrapolation, IDIIS=  1040.
 Integral symmetry usage will be decided dynamically.
 Keep J ints in memory in symmetry-blocked form, NReq=1167802198.
 IVT=      348658 IEndB=      348658 NGot= 17179869184 MDV= 16785904737
 LenX= 16785904737 LenY= 16785801896
 Requested convergence on RMS density matrix=1.00D-08 within 128 cycles.
 Requested convergence on MAX density matrix=1.00D-06.
 Requested convergence on             energy=1.00D-06.
 No special actions if energy rises.
 FoFCou: FMM=F IPFlag=           0 FMFlag=           0 FMFlg1=           0
         NFxFlg=           0 DoJE=F BraDBF=F KetDBF=F FulRan=T
         wScrn=  0.000000 ICntrl=     600 IOpCl=  0 I1Cent=           0 NGrid=           0
         NMat0=    1 NMatS0=  39340 NMatT0=    0 NMatD0=    1 NMtDS0=    0 NMtDT0=    0
 Petite list used in FoFCou.
 Integral accuracy reduced to 1.0D-05 until final iterations.

 Cycle   1  Pass 0  IDiag  1:
 E= -323.554111500835    
 DIIS: error= 2.45D-02 at cycle   1 NSaved=   1.
 NSaved= 1 IEnMin= 1 EnMin= -323.554111500835     IErMin= 1 ErrMin= 2.45D-02
 ErrMax= 2.45D-02  0.00D+00 EMaxC= 1.00D-01 BMatC= 1.59D-01 BMatP= 1.59D-01
 IDIUse=3 WtCom= 7.55D-01 WtEn= 2.45D-01
 Coeff-Com:  0.100D+01
 Coeff-En:   0.100D+01
 Coeff:      0.100D+01
 Gap=     0.158 Goal=   None    Shift=    0.000
 GapD=    0.158 DampG=1.000 DampE=0.500 DampFc=0.5000 IDamp=-1.
 Damping current iteration by 5.00D-01
 RMSDP=2.84D-03 MaxDP=1.13D-01              OVMax= 2.36D-01

 Cycle   2  Pass 0  IDiag  1:
 E= -323.601418916305     Delta-E=       -0.047307415470 Rises=F Damp=T
 DIIS: error= 6.39D-03 at cycle   2 NSaved=   2.
 NSaved= 2 IEnMin= 2 EnMin= -323.601418916305     IErMin= 2 ErrMin= 6.39D-03
 ErrMax= 6.39D-03  0.00D+00 EMaxC= 1.00D-01 BMatC= 1.67D-02 BMatP= 1.59D-01
 IDIUse=3 WtCom= 9.36D-01 WtEn= 6.39D-02
 Coeff-Com:  0.161D+00 0.839D+00
 Coeff-En:   0.303D+00 0.697D+00
 Coeff:      0.170D+00 0.830D+00
 Gap=     0.158 Goal=   None    Shift=    0.000
 RMSDP=7.11D-04 MaxDP=3.47D-02 DE=-4.73D-02 OVMax= 2.02D-01

 Cycle   3  Pass 0  IDiag  1:
 E= -323.690175051317     Delta-E=       -0.088756135012 Rises=F Damp=F
 DIIS: error= 8.10D-03 at cycle   3 NSaved=   3.
 NSaved= 3 IEnMin= 3 EnMin= -323.690175051317     IErMin= 2 ErrMin= 6.39D-03
 ErrMax= 8.10D-03  0.00D+00 EMaxC= 1.00D-01 BMatC= 9.08D-03 BMatP= 1.67D-02
 IDIUse=3 WtCom= 9.19D-01 WtEn= 8.10D-02
 Coeff-Com:  0.251D-01 0.412D+00 0.563D+00
 Coeff-En:   0.000D+00 0.000D+00 0.100D+01
 Coeff:      0.231D-01 0.379D+00 0.598D+00
 Gap=     0.162 Goal=   None    Shift=    0.000
 RMSDP=5.33D-04 MaxDP=2.10D-02 DE=-8.88D-02 OVMax= 9.14D-02

 Cycle   4  Pass 0  IDiag  1:
 E= -323.691843326359     Delta-E=       -0.001668275042 Rises=F Damp=F
 DIIS: error= 8.64D-03 at cycle   4 NSaved=   4.
 NSaved= 4 IEnMin= 4 EnMin= -323.691843326359     IErMin= 2 ErrMin= 6.39D-03
 ErrMax= 8.64D-03  0.00D+00 EMaxC= 1.00D-01 BMatC= 7.66D-03 BMatP= 9.08D-03
 IDIUse=3 WtCom= 9.14D-01 WtEn= 8.64D-02
 Coeff-Com: -0.130D-01 0.131D+00 0.469D+00 0.413D+00
 Coeff-En:   0.000D+00 0.000D+00 0.467D+00 0.533D+00
 Coeff:     -0.119D-01 0.120D+00 0.469D+00 0.423D+00
 Gap=     0.160 Goal=   None    Shift=    0.000
 RMSDP=2.78D-04 MaxDP=9.11D-03 DE=-1.67D-03 OVMax= 4.61D-02

 Cycle   5  Pass 0  IDiag  1:
 E= -323.700253866520     Delta-E=       -0.008410540162 Rises=F Damp=F
 DIIS: error= 9.02D-04 at cycle   5 NSaved=   5.
 NSaved= 5 IEnMin= 5 EnMin= -323.700253866520     IErMin= 5 ErrMin= 9.02D-04
 ErrMax= 9.02D-04  0.00D+00 EMaxC= 1.00D-01 BMatC= 2.85D-04 BMatP= 7.66D-03
 IDIUse=3 WtCom= 9.91D-01 WtEn= 9.02D-03
 Coeff-Com: -0.783D-02 0.316D-01 0.217D+00 0.241D+00 0.519D+00
 Coeff-En:   0.000D+00 0.000D+00 0.000D+00 0.000D+00 0.100D+01
 Coeff:     -0.776D-02 0.313D-01 0.215D+00 0.238D+00 0.523D+00
 Gap=     0.160 Goal=   None    Shift=    0.000
 RMSDP=5.33D-05 MaxDP=2.85D-03 DE=-8.41D-03 OVMax= 8.11D-03

 Cycle   6  Pass 0  IDiag  1:
 E= -323.700462659521     Delta-E=       -0.000208793001 Rises=F Damp=F
 DIIS: error= 4.28D-04 at cycle   6 NSaved=   6.
 NSaved= 6 IEnMin= 6 EnMin= -323.700462659521     IErMin= 6 ErrMin= 4.28D-04
 ErrMax= 4.28D-04  0.00D+00 EMaxC= 1.00D-01 BMatC= 5.20D-05 BMatP= 2.85D-04
 IDIUse=3 WtCom= 9.96D-01 WtEn= 4.28D-03
 Coeff-Com: -0.365D-02 0.580D-02 0.861D-01 0.106D+00 0.345D+00 0.461D+00
 Coeff-En:   0.000D+00 0.000D+00 0.000D+00 0.000D+00 0.148D+00 0.852D+00
 Coeff:     -0.363D-02 0.577D-02 0.857D-01 0.106D+00 0.344D+00 0.463D+00
 Gap=     0.160 Goal=   None    Shift=    0.000
 RMSDP=2.11D-05 MaxDP=1.01D-03 DE=-2.09D-04 OVMax= 2.53D-03

 Cycle   7  Pass 0  IDiag  1:
 E= -323.700504202890     Delta-E=       -0.000041543369 Rises=F Damp=F
 DIIS: error= 1.25D-04 at cycle   7 NSaved=   7.
 NSaved= 7 IEnMin= 7 EnMin= -323.700504202890     IErMin= 7 ErrMin= 1.25D-04
 ErrMax= 1.25D-04  0.00D+00 EMaxC= 1.00D-01 BMatC= 3.30D-06 BMatP= 5.20D-05
 IDIUse=3 WtCom= 9.99D-01 WtEn= 1.25D-03
 Coeff-Com: -0.194D-02 0.270D-02 0.461D-01 0.570D-01 0.197D+00 0.296D+00
 Coeff-Com:  0.403D+00
 Coeff-En:   0.000D+00 0.000D+00 0.000D+00 0.000D+00 0.000D+00 0.000D+00
 Coeff-En:   0.100D+01
 Coeff:     -0.193D-02 0.270D-02 0.460D-01 0.569D-01 0.197D+00 0.296D+00
 Coeff:      0.404D+00
 Gap=     0.160 Goal=   None    Shift=    0.000
 RMSDP=6.94D-06 MaxDP=2.03D-04 DE=-4.15D-05 OVMax= 1.24D-03

 Initial convergence to 1.0D-05 achieved.  Increase integral accuracy.
 Cycle   8  Pass 1  IDiag  1:
 E= -323.700445630357     Delta-E=        0.000058572534 Rises=F Damp=F
 DIIS: error= 3.78D-05 at cycle   1 NSaved=   1.
 NSaved= 1 IEnMin= 1 EnMin= -323.700445630357     IErMin= 1 ErrMin= 3.78D-05
 ErrMax= 3.78D-05  0.00D+00 EMaxC= 1.00D-01 BMatC= 7.98D-07 BMatP= 7.98D-07
 IDIUse=1 WtCom= 1.00D+00 WtEn= 0.00D+00
 Coeff-Com:  0.100D+01
 Coeff:      0.100D+01
 Gap=     0.160 Goal=   None    Shift=    0.000
 RMSDP=6.94D-06 MaxDP=2.03D-04 DE= 5.86D-05 OVMax= 1.16D-03

 Cycle   9  Pass 1  IDiag  1:
 E= -323.700443384904     Delta-E=        0.000002245452 Rises=F Damp=F
 DIIS: error= 1.06D-04 at cycle   2 NSaved=   2.
 NSaved= 2 IEnMin= 1 EnMin= -323.700445630357     IErMin= 1 ErrMin= 3.78D-05
 ErrMax= 1.06D-04  0.00D+00 EMaxC= 1.00D-01 BMatC= 2.89D-06 BMatP= 7.98D-07
 IDIUse=3 WtCom= 4.93D-01 WtEn= 5.07D-01
 Coeff-Com:  0.675D+00 0.325D+00
 Coeff-En:   0.773D+00 0.227D+00
 Coeff:      0.725D+00 0.275D+00
 Gap=     0.160 Goal=   None    Shift=    0.000
 RMSDP=4.72D-06 MaxDP=1.43D-04 DE= 2.25D-06 OVMax= 8.73D-04

 Cycle  10  Pass 1  IDiag  1:
 E= -323.700446334323     Delta-E=       -0.000002949418 Rises=F Damp=F
 DIIS: error= 8.64D-06 at cycle   3 NSaved=   3.
 NSaved= 3 IEnMin= 3 EnMin= -323.700446334323     IErMin= 3 ErrMin= 8.64D-06
 ErrMax= 8.64D-06  0.00D+00 EMaxC= 1.00D-01 BMatC= 2.22D-08 BMatP= 7.98D-07
 IDIUse=1 WtCom= 1.00D+00 WtEn= 0.00D+00
 Coeff-Com:  0.103D+00 0.453D-01 0.852D+00
 Coeff:      0.103D+00 0.453D-01 0.852D+00
 Gap=     0.160 Goal=   None    Shift=    0.000
 RMSDP=7.84D-07 MaxDP=3.39D-05 DE=-2.95D-06 OVMax= 7.60D-05

 Cycle  11  Pass 1  IDiag  1:
 E= -323.700446321723     Delta-E=        0.000000012600 Rises=F Damp=F
 DIIS: error= 9.43D-06 at cycle   4 NSaved=   4.
 NSaved= 4 IEnMin= 3 EnMin= -323.700446334323     IErMin= 3 ErrMin= 8.64D-06
 ErrMax= 9.43D-06  0.00D+00 EMaxC= 1.00D-01 BMatC= 3.70D-08 BMatP= 2.22D-08
 IDIUse=1 WtCom= 1.00D+00 WtEn= 0.00D+00
 Coeff-Com: -0.429D-02-0.401D-02 0.569D+00 0.439D+00
 Coeff:     -0.429D-02-0.401D-02 0.569D+00 0.439D+00
 Gap=     0.160 Goal=   None    Shift=    0.000
 RMSDP=5.10D-07 MaxDP=2.44D-05 DE= 1.26D-08 OVMax= 6.40D-05

 Cycle  12  Pass 1  IDiag  1:
 E= -323.700446351564     Delta-E=       -0.000000029841 Rises=F Damp=F
 DIIS: error= 2.84D-06 at cycle   5 NSaved=   5.
 NSaved= 5 IEnMin= 5 EnMin= -323.700446351564     IErMin= 5 ErrMin= 2.84D-06
 ErrMax= 2.84D-06  0.00D+00 EMaxC= 1.00D-01 BMatC= 1.63D-09 BMatP= 2.22D-08
 IDIUse=1 WtCom= 1.00D+00 WtEn= 0.00D+00
 Coeff-Com: -0.786D-02-0.529D-02 0.282D+00 0.261D+00 0.469D+00
 Coeff:     -0.786D-02-0.529D-02 0.282D+00 0.261D+00 0.469D+00
 Gap=     0.160 Goal=   None    Shift=    0.000
 RMSDP=1.40D-07 MaxDP=4.68D-06 DE=-2.98D-08 OVMax= 2.08D-05

 Cycle  13  Pass 1  IDiag  1:
 E= -323.700446352841     Delta-E=       -0.000000001276 Rises=F Damp=F
 DIIS: error= 1.39D-06 at cycle   6 NSaved=   6.
 NSaved= 6 IEnMin= 6 EnMin= -323.700446352841     IErMin= 6 ErrMin= 1.39D-06
 ErrMax= 1.39D-06  0.00D+00 EMaxC= 1.00D-01 BMatC= 2.50D-10 BMatP= 1.63D-09
 IDIUse=1 WtCom= 1.00D+00 WtEn= 0.00D+00
 Coeff-Com: -0.525D-02-0.354D-02 0.152D+00 0.147D+00 0.321D+00 0.388D+00
 Coeff:     -0.525D-02-0.354D-02 0.152D+00 0.147D+00 0.321D+00 0.388D+00
 Gap=     0.160 Goal=   None    Shift=    0.000
 RMSDP=5.41D-08 MaxDP=2.40D-06 DE=-1.28D-09 OVMax= 9.07D-06

 Cycle  14  Pass 1  IDiag  1:
 E= -323.700446353109     Delta-E=       -0.000000000268 Rises=F Damp=F
 DIIS: error= 2.36D-07 at cycle   7 NSaved=   7.
 NSaved= 7 IEnMin= 7 EnMin= -323.700446353109     IErMin= 7 ErrMin= 2.36D-07
 ErrMax= 2.36D-07  0.00D+00 EMaxC= 1.00D-01 BMatC= 1.21D-11 BMatP= 2.50D-10
 IDIUse=1 WtCom= 1.00D+00 WtEn= 0.00D+00
 Coeff-Com: -0.201D-02-0.142D-02 0.536D-01 0.534D-01 0.127D+00 0.225D+00
 Coeff-Com:  0.545D+00
 Coeff:     -0.201D-02-0.142D-02 0.536D-01 0.534D-01 0.127D+00 0.225D+00
 Coeff:      0.545D+00
 Gap=     0.160 Goal=   None    Shift=    0.000
 RMSDP=1.20D-08 MaxDP=4.87D-07 DE=-2.68D-10 OVMax= 1.70D-06

 Cycle  15  Pass 1  IDiag  1:
 E= -323.700446353110     Delta-E=       -0.000000000001 Rises=F Damp=F
 DIIS: error= 7.17D-08 at cycle   8 NSaved=   8.
 NSaved= 8 IEnMin= 8 EnMin= -323.700446353110     IErMin= 8 ErrMin= 7.17D-08
 ErrMax= 7.17D-08  0.00D+00 EMaxC= 1.00D-01 BMatC= 1.29D-12 BMatP= 1.21D-11
 IDIUse=1 WtCom= 1.00D+00 WtEn= 0.00D+00
 Coeff-Com: -0.259D-03-0.167D-03 0.423D-02 0.459D-02 0.145D-01 0.556D-01
 Coeff-Com:  0.296D+00 0.625D+00
 Coeff:     -0.259D-03-0.167D-03 0.423D-02 0.459D-02 0.145D-01 0.556D-01
 Coeff:      0.296D+00 0.625D+00
 Gap=     0.160 Goal=   None    Shift=    0.000
 RMSDP=3.66D-09 MaxDP=1.76D-07 DE=-1.02D-12 OVMax= 4.87D-07

 SCF Done:  E(RTPSS-TPSS) =  -323.700446353     A.U. after   15 cycles
            NFock= 15  Conv=0.37D-08     -V/T= 2.0034
 KE= 3.226141907944D+02 PE=-1.310423902996D+03 EE= 3.865855948868D+02
 Leave Link  502 at Fri Aug 27 00:03:26 2021, MaxMem= 17179869184 cpu:       272.4
 (Enter /public3/home/sc51754/softwares/g09e01/l601.exe)
 Copying SCF densities to generalized density rwf, IOpCl= 0 IROHF=0.

 **********************************************************************

            Population analysis using the SCF density.

 **********************************************************************

 Orbital symmetries:
       Occupied  (A') (A') (A') (A') (A') (A') (A') (A') (A') (A')
                 (A') (A') (A') (A') (A') (A') (A') (A") (A') (A')
                 (A') (A") (A") (A') (A")
       Virtual   (A") (A") (A') (A') (A') (A') (A') (A") (A') (A')
                 (A") (A') (A') (A') (A") (A") (A') (A') (A') (A')
                 (A") (A") (A') (A') (A') (A') (A') (A') (A') (A')
                 (A') (A") (A') (A") (A') (A') (A') (A') (A') (A')
                 (A') (A') (A') (A") (A') (A') (A') (A") (A") (A")
                 (A') (A") (A') (A') (A") (A') (A") (A') (A') (A')
                 (A') (A") (A') (A') (A") (A') (A') (A") (A') (A')
                 (A") (A") (A") (A") (A') (A') (A') (A") (A') (A')
                 (A") (A') (A') (A') (A') (A") (A") (A') (A") (A')
                 (A") (A') (A') (A') (A') (A") (A') (A') (A") (A')
                 (A') (A") (A') (A') (A') (A') (A') (A") (A') (A')
                 (A") (A') (A') (A') (A') (A') (A") (A') (A') (A')
                 (A") (A') (A") (A') (A") (A') (A") (A') (A") (A")
                 (A") (A') (A') (A") (A') (A') (A") (A') (A') (A')
                 (A') (A') (A") (A') (A") (A') (A") (A') (A') (A')
                 (A") (A') (A") (A') (A") (A') (A") (A') (A") (A')
                 (A") (A') (A') (A') (A") (A") (A') (A") (A') (A')
                 (A") (A') (A") (A') (A') (A') (A") (A') (A") (A")
                 (A") (A") (A") (A') (A') (A") (A') (A") (A") (A')
                 (A") (A') (A') (A") (A') (A") (A') (A') (A") (A")
                 (A') (A') (A") (A') (A') (A") (A') (A') (A') (A')
                 (A") (A') (A') (A") (A") (A') (A') (A') (A") (A")
                 (A') (A') (A') (A") (A") (A') (A') (A') (A') (A')
                 (A") (A') (A') (A') (A') (A") (A") (A') (A') (A')
                 (A") (A') (A') (A') (A') (A') (A') (A') (A') (A')
                 (A') (A') (A') (A') (A')
 The electronic state is 1-A'.
 Alpha  occ. eigenvalues --  -18.91792 -14.09791 -10.07789 -10.02522 -10.00873
 Alpha  occ. eigenvalues --   -9.99698  -9.99219  -1.01761  -0.88216  -0.75509
 Alpha  occ. eigenvalues --   -0.70596  -0.60227  -0.58353  -0.51312  -0.47566
 Alpha  occ. eigenvalues --   -0.44328  -0.40827  -0.40182  -0.37477  -0.36101
 Alpha  occ. eigenvalues --   -0.33263  -0.32160  -0.26804  -0.23803  -0.21778
 Alpha virt. eigenvalues --   -0.05780  -0.03142   0.01238   0.01989   0.03677
 Alpha virt. eigenvalues --    0.05731   0.07512   0.10423   0.12461   0.14454
 Alpha virt. eigenvalues --    0.14868   0.15717   0.17210   0.18449   0.18972
 Alpha virt. eigenvalues --    0.19610   0.20938   0.24019   0.24190   0.25771
 Alpha virt. eigenvalues --    0.25919   0.27966   0.28110   0.28575   0.30199
 Alpha virt. eigenvalues --    0.32397   0.33127   0.34574   0.35211   0.36096
 Alpha virt. eigenvalues --    0.37937   0.40231   0.42192   0.43780   0.44090
 Alpha virt. eigenvalues --    0.47506   0.50629   0.50877   0.53129   0.56204
 Alpha virt. eigenvalues --    0.58626   0.60362   0.61718   0.61985   0.63835
 Alpha virt. eigenvalues --    0.65964   0.70371   0.73431   0.74761   0.78527
 Alpha virt. eigenvalues --    0.79675   0.83746   0.85727   0.88698   0.89903
 Alpha virt. eigenvalues --    0.92590   0.94082   0.94542   0.96563   0.98418
 Alpha virt. eigenvalues --    1.00876   1.06682   1.07190   1.08906   1.11916
 Alpha virt. eigenvalues --    1.12570   1.13859   1.14249   1.16857   1.17602
 Alpha virt. eigenvalues --    1.19491   1.23150   1.24868   1.27149   1.27293
 Alpha virt. eigenvalues --    1.29135   1.34033   1.38725   1.40039   1.42238
 Alpha virt. eigenvalues --    1.47202   1.48484   1.49244   1.52054   1.52569
 Alpha virt. eigenvalues --    1.53093   1.55639   1.58937   1.59946   1.63959
 Alpha virt. eigenvalues --    1.64188   1.65204   1.68255   1.71425   1.72402
 Alpha virt. eigenvalues --    1.75858   1.77887   1.80656   1.83621   1.84151
 Alpha virt. eigenvalues --    1.87061   1.92483   1.93020   1.94224   1.98360
 Alpha virt. eigenvalues --    2.02204   2.08526   2.09295   2.14070   2.16878
 Alpha virt. eigenvalues --    2.20376   2.20623   2.24421   2.26056   2.29531
 Alpha virt. eigenvalues --    2.32739   2.35015   2.58268   2.67824   2.71408
 Alpha virt. eigenvalues --    2.84518   2.91667   2.94885   2.98190   3.14126
 Alpha virt. eigenvalues --    3.17564   3.19934   3.23944   3.25422   3.27996
 Alpha virt. eigenvalues --    3.30759   3.32002   3.34377   3.38769   3.39802
 Alpha virt. eigenvalues --    3.43799   3.46970   3.47227   3.49838   3.57737
 Alpha virt. eigenvalues --    3.58186   3.61295   3.62135   3.63166   3.70149
 Alpha virt. eigenvalues --    3.70333   3.74796   3.79501   3.81400   3.82190
 Alpha virt. eigenvalues --    3.86875   3.87472   3.91491   3.92038   3.97110
 Alpha virt. eigenvalues --    3.98543   4.02329   4.06371   4.06844   4.08391
 Alpha virt. eigenvalues --    4.08723   4.12401   4.13835   4.18462   4.18595
 Alpha virt. eigenvalues --    4.19049   4.20537   4.21655   4.24550   4.26231
 Alpha virt. eigenvalues --    4.27775   4.28022   4.30053   4.31591   4.35043
 Alpha virt. eigenvalues --    4.35617   4.38916   4.39275   4.41447   4.41643
 Alpha virt. eigenvalues --    4.45615   4.47242   4.47623   4.49861   4.52044
 Alpha virt. eigenvalues --    4.53247   4.54983   4.56405   4.58809   4.59271
 Alpha virt. eigenvalues --    4.63147   4.63363   4.66891   4.68613   4.71602
 Alpha virt. eigenvalues --    4.77365   4.77890   4.82486   4.85455   4.89153
 Alpha virt. eigenvalues --    4.90835   4.91650   4.99812   5.00459   5.06824
 Alpha virt. eigenvalues --    5.10765   5.12169   5.12740   5.19707   5.22143
 Alpha virt. eigenvalues --    5.26185   5.26797   5.32417   5.34766   5.36372
 Alpha virt. eigenvalues --    5.37288   5.39078   5.39899   5.42231   5.48148
 Alpha virt. eigenvalues --    5.48661   5.49818   5.61298   5.62120   5.67062
 Alpha virt. eigenvalues --    5.67367   5.69627   5.75049   5.81390   5.85958
 Alpha virt. eigenvalues --    5.91587   6.04196   6.07940   6.11338   6.12884
 Alpha virt. eigenvalues --    6.14034   6.21986   6.28377   6.32031   6.34215
 Alpha virt. eigenvalues --    6.45517   6.47187   6.52316   6.66953   6.69205
 Alpha virt. eigenvalues --    6.91989   7.20337   7.32651   9.24435  12.03973
 Alpha virt. eigenvalues --   12.67461  15.46903  17.36148  18.59128  22.15786
          Condensed to atoms (all electrons):
               1          2          3          4          5          6
     1  O    7.852833  -0.099882   0.329080  -0.059542   0.003228   0.008044
     2  N   -0.099882   6.620226   0.459178  -0.010477   0.544200  -0.034602
     3  C    0.329080   0.459178   4.432659   0.502315  -0.078289  -0.060658
     4  C   -0.059542  -0.010477   0.502315   4.850175  -0.045830   0.542059
     5  C    0.003228   0.544200  -0.078289  -0.045830   4.566799  -0.074165
     6  C    0.008044  -0.034602  -0.060658   0.542059  -0.074165   4.683873
     7  C   -0.000647  -0.044098  -0.053390  -0.040328   0.521683   0.514214
     8  H    0.343533   0.020460  -0.042415   0.015417   0.001608  -0.002649
     9  H    0.006419   0.008955  -0.025458   0.413837  -0.002576  -0.031373
    10  H   -0.000542  -0.039225   0.003940  -0.004159   0.433631   0.008518
    11  H   -0.000270  -0.001860   0.006830  -0.033830   0.006485   0.421252
    12  H    0.000062   0.009426  -0.000509   0.005734  -0.021359  -0.031829
               7          8          9         10         11         12
     1  O   -0.000647   0.343533   0.006419  -0.000542  -0.000270   0.000062
     2  N   -0.044098   0.020460   0.008955  -0.039225  -0.001860   0.009426
     3  C   -0.053390  -0.042415  -0.025458   0.003940   0.006830  -0.000509
     4  C   -0.040328   0.015417   0.413837  -0.004159  -0.033830   0.005734
     5  C    0.521683   0.001608  -0.002576   0.433631   0.006485  -0.021359
     6  C    0.514214  -0.002649  -0.031373   0.008518   0.421252  -0.031829
     7  C    4.936876   0.001888   0.007827  -0.070258  -0.032336   0.410122
     8  H    0.001888   0.456740  -0.001135  -0.000884   0.000115  -0.000081
     9  H    0.007827  -0.001135   0.592551   0.000250  -0.007119  -0.000444
    10  H   -0.070258  -0.000884   0.000250   0.620731  -0.000706  -0.002441
    11  H   -0.032336   0.000115  -0.007119  -0.000706   0.599607  -0.005466
    12  H    0.410122  -0.000081  -0.000444  -0.002441  -0.005466   0.607970
 Mulliken charges:
               1
     1  O   -0.382318
     2  N   -0.432303
     3  C    0.526718
     4  C   -0.135370
     5  C    0.144585
     6  C    0.057317
     7  C   -0.151554
     8  H    0.207401
     9  H    0.038267
    10  H    0.051145
    11  H    0.047298
    12  H    0.028814
 Sum of Mulliken charges =  -0.00000
 Mulliken charges with hydrogens summed into heavy atoms:
               1
     1  O   -0.174917
     2  N   -0.432303
     3  C    0.526718
     4  C   -0.097103
     5  C    0.195730
     6  C    0.104615
     7  C   -0.122740
 Electronic spatial extent (au):  <R**2>=            623.5155
 Charge=             -0.0000 electrons
 Dipole moment (field-independent basis, Debye):
    X=              0.4800    Y=             -1.0644    Z=             -0.0000  Tot=              1.1676
 Quadrupole moment (field-independent basis, Debye-Ang):
   XX=            -38.0642   YY=            -36.6633   ZZ=            -42.7200
   XY=             -1.9664   XZ=              0.0000   YZ=              0.0000
 Traceless Quadrupole moment (field-independent basis, Debye-Ang):
   XX=              1.0849   YY=              2.4859   ZZ=             -3.5709
   XY=             -1.9664   XZ=              0.0000   YZ=              0.0000
 Octapole moment (field-independent basis, Debye-Ang**2):
  XXX=              6.1185  YYY=              5.3711  ZZZ=              0.0000  XYY=            -10.5580
  XXY=              0.6813  XXZ=              0.0000  XZZ=             -1.3563  YZZ=              5.3550
  YYZ=             -0.0000  XYZ=              0.0000
 Hexadecapole moment (field-independent basis, Debye-Ang**3):
 XXXX=           -267.7218 YYYY=           -455.8615 ZZZZ=            -45.8087 XXXY=              8.7190
 XXXZ=              0.0000 YYYX=            -28.6726 YYYZ=              0.0000 ZZZX=              0.0000
 ZZZY=              0.0000 XXYY=           -110.3153 XXZZ=            -58.9313 YYZZ=            -96.0295
 XXYZ=              0.0000 YYXZ=              0.0000 ZZXY=              0.7669
 N-N= 2.775236709615D+02 E-N=-1.310423889135D+03  KE= 3.226141907944D+02
 Symmetry A'   KE= 3.108316708679D+02
 Symmetry A"   KE= 1.178251992643D+01
 No NMR shielding tensors so no spin-rotation constants.
 Leave Link  601 at Fri Aug 27 00:03:28 2021, MaxMem= 17179869184 cpu:        85.4
 (Enter /public3/home/sc51754/softwares/g09e01/l701.exe)
 Compute integral first derivatives.
 ... and contract with generalized density number  0.
 Leave Link  701 at Fri Aug 27 00:03:29 2021, MaxMem= 17179869184 cpu:        91.9
 (Enter /public3/home/sc51754/softwares/g09e01/l702.exe)
 L702 exits ... SP integral derivatives will be done elsewhere.
 Leave Link  702 at Fri Aug 27 00:03:29 2021, MaxMem= 17179869184 cpu:         0.3
 (Enter /public3/home/sc51754/softwares/g09e01/l703.exe)
 Compute integral first derivatives, UseDBF=F ICtDFT=           0.
 Integral derivatives from FoFJK, PRISM(SPDF).
 Calling FoFJK, ICntrl=      2527 FMM=F ISym2X=1 I1Cent= 0 IOpClX= 0 NMat=1 NMatS=1 NMatT=0.
 FoFJK:  IHMeth= 1 ICntrl=    2527 DoSepK=F KAlg= 0 I1Cent=   0 FoldK=F
 IRaf=         0 NMat=   1 IRICut=       1 DoRegI=T DoRafI=F ISym2E= 1.
 FoFCou: FMM=F IPFlag=           0 FMFlag=      100000 FMFlg1=         800
         NFxFlg=           0 DoJE=F BraDBF=F KetDBF=F FulRan=T
         wScrn=  0.000000 ICntrl=    2527 IOpCl=  0 I1Cent=           0 NGrid=           0
         NMat0=    1 NMatS0=      1 NMatT0=    0 NMatD0=    1 NMtDS0=    0 NMtDT0=    0
 Petite list used in FoFCou.
 Leave Link  703 at Fri Aug 27 00:03:32 2021, MaxMem= 17179869184 cpu:       151.1
 (Enter /public3/home/sc51754/softwares/g09e01/l716.exe)
 Dipole        = 1.88832908D-01-4.18769115D-01-1.95645421D-32
 ***** Axes restored to original set *****
 -------------------------------------------------------------------
 Center     Atomic                   Forces (Hartrees/Bohr)
 Number     Number              X              Y              Z
 -------------------------------------------------------------------
      1        8           0.009228828    0.013131864   -0.000000000
      2        7          -0.013268165    0.005944945   -0.000000000
      3        6           0.005923535   -0.003861333    0.000000000
      4        6           0.006475783    0.005401142    0.000000000
      5        6          -0.008229347   -0.007001966   -0.000000000
      6        6           0.006618665   -0.006171142    0.000000000
      7        6           0.000827445   -0.007360769    0.000000000
      8        1          -0.010144921    0.003259020   -0.000000000
      9        1           0.002404938    0.000908597    0.000000000
     10        1          -0.002008473   -0.000244202   -0.000000000
     11        1           0.002253165   -0.001178745    0.000000000
     12        1          -0.000081454   -0.002827411    0.000000000
 -------------------------------------------------------------------
 Cartesian Forces:  Max     0.013268165 RMS     0.005223679
 Leave Link  716 at Fri Aug 27 00:03:32 2021, MaxMem= 17179869184 cpu:         0.3
 (Enter /public3/home/sc51754/softwares/g09e01/l103.exe)

 GradGradGradGradGradGradGradGradGradGradGradGradGradGradGradGradGradGrad
 Berny optimization.
 FormGI is forming the generalized inverse of G from B-inverse, IUseBI=4.
 Internal  Forces:  Max     0.016376826 RMS     0.005030884
 Search for a local minimum.
 Step number   1 out of a maximum of   61
 All quantities printed in internal units (Hartrees-Bohrs-Radians)
 RMS Force = .50309D-02 SwitMx=.10000D-02 MixMth= 1
 Mixed Optimization -- RFO/linear search
 Second derivative matrix not updated -- first step.
 ITU=  0
     Eigenvalues ---    0.02265   0.02291   0.02312   0.02345   0.02366
     Eigenvalues ---    0.02409   0.02454   0.02466   0.02614   0.16000
     Eigenvalues ---    0.16000   0.16000   0.16000   0.16000   0.22000
     Eigenvalues ---    0.22422   0.24442   0.25000   0.35406   0.35728
     Eigenvalues ---    0.35970   0.35990   0.43621   0.45785   0.48169
     Eigenvalues ---    0.49389   0.54882   0.56881   0.57480   0.60970
 RFO step:  Lambda=-2.40225017D-03 EMin= 2.26525640D-02
 Linear search not attempted -- first point.
 Iteration  1 RMS(Cart)=  0.01590328 RMS(Int)=  0.00001320
 Iteration  2 RMS(Cart)=  0.00002260 RMS(Int)=  0.00000099
 Iteration  3 RMS(Cart)=  0.00000000 RMS(Int)=  0.00000099
 ITry= 1 IFail=0 DXMaxC= 4.88D-02 DCOld= 1.00D+10 DXMaxT= 3.00D-01 DXLimC= 3.00D+00 Rises=F
 ClnCor:  largest displacement from symmetrization is 5.37D-12 for atom    11.
 Variable       Old X    -DE/DX   Delta X   Delta X   Delta X     New X
                                 (Linear)    (Quad)   (Total)
    R1        2.53498   0.01638   0.00000   0.02867   0.02867   2.56365
    R2        1.81937   0.01067   0.00000   0.01936   0.01936   1.83873
    R3        2.48913   0.01511   0.00000   0.02447   0.02447   2.51360
    R4        2.51605   0.01275   0.00000   0.02187   0.02187   2.53792
    R5        2.63173   0.01022   0.00000   0.02181   0.02181   2.65354
    R6        2.59740   0.01205   0.00000   0.02343   0.02343   2.62083
    R7        2.04128   0.00253   0.00000   0.00699   0.00699   2.04827
    R8        2.60360   0.01136   0.00000   0.02279   0.02279   2.62639
    R9        2.05020   0.00192   0.00000   0.00538   0.00538   2.05558
   R10        2.62604   0.01037   0.00000   0.02118   0.02117   2.64721
   R11        2.04509   0.00254   0.00000   0.00706   0.00706   2.05215
   R12        2.04097   0.00283   0.00000   0.00780   0.00780   2.04877
    A1        1.85547   0.00036   0.00000   0.00224   0.00224   1.85770
    A2        2.05525  -0.00022   0.00000   0.00207   0.00208   2.05733
    A3        2.05194  -0.00079   0.00000  -0.00368  -0.00369   2.04825
    A4        2.06888   0.00153   0.00000   0.00548   0.00548   2.07437
    A5        2.16236  -0.00074   0.00000  -0.00180  -0.00180   2.16057
    A6        2.04920   0.00034   0.00000   0.00042   0.00042   2.04961
    A7        2.09344   0.00029   0.00000   0.00262   0.00262   2.09606
    A8        2.14055  -0.00063   0.00000  -0.00304  -0.00304   2.13751
    A9        2.15386  -0.00072   0.00000  -0.00246  -0.00246   2.15140
   A10        2.02490  -0.00028   0.00000  -0.00271  -0.00271   2.02218
   A11        2.10443   0.00100   0.00000   0.00517   0.00517   2.10960
   A12        2.08852   0.00058   0.00000   0.00004   0.00004   2.08856
   A13        2.09426  -0.00048   0.00000  -0.00121  -0.00121   2.09305
   A14        2.10040  -0.00010   0.00000   0.00117   0.00117   2.10157
   A15        2.05718   0.00075   0.00000   0.00173   0.00172   2.05890
   A16        2.10510  -0.00027   0.00000  -0.00022  -0.00022   2.10488
   A17        2.12091  -0.00048   0.00000  -0.00151  -0.00151   2.11940
    D1        0.00000   0.00000   0.00000   0.00000  -0.00000   0.00000
    D2        3.14159   0.00000   0.00000   0.00000   0.00000   3.14159
    D3        3.14159  -0.00000   0.00000  -0.00000   0.00000   3.14159
    D4        0.00000   0.00000   0.00000   0.00000   0.00000   0.00000
    D5       -0.00000  -0.00000   0.00000  -0.00000   0.00000   0.00000
    D6        3.14159  -0.00000   0.00000  -0.00000   0.00000   3.14159
    D7        3.14159   0.00000   0.00000   0.00000   0.00000   3.14159
    D8        0.00000   0.00000   0.00000   0.00000   0.00000   0.00000
    D9       -0.00000  -0.00000   0.00000  -0.00000   0.00000   0.00000
   D10        3.14159  -0.00000   0.00000  -0.00000   0.00000   3.14159
   D11        0.00000   0.00000   0.00000   0.00000  -0.00000   0.00000
   D12        3.14159  -0.00000   0.00000  -0.00000   0.00000   3.14159
   D13        3.14159   0.00000   0.00000   0.00000   0.00000   3.14159
   D14       -0.00000   0.00000   0.00000  -0.00000   0.00000   0.00000
   D15       -0.00000  -0.00000   0.00000  -0.00000   0.00000   0.00000
   D16        3.14159  -0.00000   0.00000  -0.00000   0.00000   3.14159
   D17        3.14159   0.00000   0.00000   0.00000   0.00000   3.14159
   D18       -0.00000   0.00000   0.00000   0.00000   0.00000   0.00000
   D19        0.00000   0.00000   0.00000   0.00000   0.00000   0.00000
   D20        3.14159   0.00000   0.00000   0.00000   0.00000   3.14159
   D21        3.14159   0.00000   0.00000   0.00000   0.00000   3.14159
   D22       -0.00000   0.00000   0.00000   0.00000   0.00000   0.00000
         Item               Value     Threshold  Converged?
 Maximum Force            0.016377     0.000450     NO 
 RMS     Force            0.005031     0.000300     NO 
 Maximum Displacement     0.048842     0.001800     NO 
 RMS     Displacement     0.015905     0.001200     NO 
 Predicted change in Energy=-1.206612D-03
 Lowest energy point so far.  Saving SCF results.
 GradGradGradGradGradGradGradGradGradGradGradGradGradGradGradGradGradGrad

 Leave Link  103 at Fri Aug 27 00:03:33 2021, MaxMem= 17179869184 cpu:        38.2
 (Enter /public3/home/sc51754/softwares/g09e01/l202.exe)
                          Input orientation:                          
 ---------------------------------------------------------------------
 Center     Atomic      Atomic             Coordinates (Angstroms)
 Number     Number       Type             X           Y           Z
 ---------------------------------------------------------------------
      1          8           0        0.004541    2.264636   -0.000000
      2          7           0       -1.180521    0.298993   -0.000000
      3          6           0        0.002006    0.908013   -0.000000
      4          6           0        1.230620    0.228115    0.000000
      5          6           0       -1.195216   -1.043934   -0.000000
      6          6           0        1.193703   -1.158277    0.000000
      7          6           0       -0.041554   -1.818965    0.000000
      8          1           0       -0.928182    2.541729   -0.000000
      9          1           0        2.160233    0.785473    0.000000
     10          1           0       -2.179170   -1.507692   -0.000000
     11          1           0        2.120137   -1.724852    0.000000
     12          1           0       -0.103818   -2.901338    0.000000
 ---------------------------------------------------------------------
                    Distance matrix (angstroms):
                    1          2          3          4          5
     1  O    0.000000
     2  N    2.295239   0.000000
     3  C    1.356625   1.330141   0.000000
     4  C    2.377117   2.412182   1.404192   0.000000
     5  C    3.519383   1.343008   2.289856   2.739123   0.000000
     6  C    3.623595   2.785781   2.385309   1.386884   2.391655
     7  C    4.083861   2.404785   2.727326   2.410179   1.389824
     8  H    0.973013   2.256888   1.879968   3.164370   3.595593
     9  H    2.614370   3.375989   2.161703   1.083895   3.821750
    10  H    4.358790   2.064319   3.254714   3.826185   1.087766
    11  H    4.515723   3.871729   3.379121   2.146001   3.384556
    12  H    5.167110   3.376597   3.810821   3.402088   2.154321
                    6          7          8          9         10
     6  C    0.000000
     7  C    1.400845   0.000000
     8  H    4.265260   4.449917   0.000000
     9  H    2.170794   3.410420   3.552850   0.000000
    10  H    3.390924   2.160161   4.238252   4.908057   0.000000
    11  H    1.085949   2.163738   5.243659   2.510645   4.304788
    12  H    2.172975   1.084163   5.505139   4.326489   2.499867
                   11         12
    11  H    0.000000
    12  H    2.515968   0.000000
 Stoichiometry    C5H5NO
 Framework group  CS[SG(C5H5NO)]
 Deg. of freedom    21
 Full point group                 CS      NOp   2
 RotChk:  IX=0 Diff= 3.78D-03
 Largest Abelian subgroup         CS      NOp   2
 Largest concise Abelian subgroup C1      NOp   1
                         Standard orientation:                         
 ---------------------------------------------------------------------
 Center     Atomic      Atomic             Coordinates (Angstroms)
 Number     Number       Type             X           Y           Z
 ---------------------------------------------------------------------
      1          8           0       -0.001090    2.262779    0.000000
      2          7           0       -1.180895    0.293977    0.000000
      3          6           0       -0.000000    0.906155    0.000000
      4          6           0        1.230426    0.229542   -0.000000
      5          6           0       -1.192003   -1.048985   -0.000000
      6          6           0        1.197214   -1.156944   -0.000000
      7          6           0       -0.036273   -1.820930   -0.000000
      8          1           0       -0.934550    2.537380    0.000000
      9          1           0        2.158547    0.789382   -0.000000
     10          1           0       -2.174713   -1.515370   -0.000000
     11          1           0        2.125158   -1.721041   -0.000000
     12          1           0       -0.095645   -2.903465   -0.000000
 ---------------------------------------------------------------------
 Rotational constants (GHZ):      5.8253472      2.7529627      1.8694782
 Leave Link  202 at Fri Aug 27 00:03:33 2021, MaxMem= 17179869184 cpu:         7.8
 (Enter /public3/home/sc51754/softwares/g09e01/l301.exe)
 Basis read from rwf:  (5D, 7F)
 No pseudopotential information found on rwf file.
 There are   223 symmetry adapted cartesian basis functions of A'  symmetry.
 There are    97 symmetry adapted cartesian basis functions of A"  symmetry.
 There are   190 symmetry adapted basis functions of A'  symmetry.
 There are    90 symmetry adapted basis functions of A"  symmetry.
   280 basis functions,   475 primitive gaussians,   320 cartesian basis functions
    25 alpha electrons       25 beta electrons
       nuclear repulsion energy       275.0895006947 Hartrees.
 IExCor= 2523 DFT=T Ex=TPSS Corr=TPSS ExCW=0 ScaHFX=  0.000000
 ScaDFX=  1.000000  1.000000  1.000000  1.000000 ScalE2=  1.000000  1.000000
 IRadAn=      0 IRanWt=     -1 IRanGd=            0 ICorTp=0 IEmpDi=  4
 NAtoms=   12 NActive=   12 NUniq=   12 SFac= 1.00D+00 NAtFMM=   60 NAOKFM=F Big=F
 Integral buffers will be    131072 words long.
 Raffenetti 2 integral format.
 Two-electron integral symmetry is turned on.
 No density basis found on file   724.
 Leave Link  301 at Fri Aug 27 00:03:34 2021, MaxMem= 17179869184 cpu:         2.0
 (Enter /public3/home/sc51754/softwares/g09e01/l302.exe)
 NPDir=0 NMtPBC=     1 NCelOv=     1 NCel=       1 NClECP=     1 NCelD=      1
         NCelK=      1 NCelE2=     1 NClLst=     1 CellRange=     0.0.
 One-electron integrals computed using PRISM.
 NBasis=   280 RedAO= T EigKep=  2.28D-04  NBF=   190    90
 NBsUse=   280 1.00D-06 EigRej= -1.00D+00 NBFU=   190    90
 Precomputing XC quadrature grid using
 IXCGrd= 4 IRadAn=           0 IRanWt=          -1 IRanGd=           0 AccXCQ= 0.00D+00.
 Generated NRdTot=       0 NPtTot=           0 NUsed=           0 NTot=          32
 NSgBfM=   320   320   320   320   320 MxSgAt=    12 MxSgA2=    12.
 Leave Link  302 at Fri Aug 27 00:03:34 2021, MaxMem= 17179869184 cpu:        36.1
 (Enter /public3/home/sc51754/softwares/g09e01/l303.exe)
 DipDrv:  MaxL=1.
 Leave Link  303 at Fri Aug 27 00:03:35 2021, MaxMem= 17179869184 cpu:        12.7
 (Enter /public3/home/sc51754/softwares/g09e01/l401.exe)
 Initial guess from the checkpoint file:  "HY_TPSSTPSS_PC2_OPT_FREQ.chk"
 B after Tr=    -0.000000    0.000000    0.000000
         Rot=    0.999999    0.000000   -0.000000   -0.001491 Ang=  -0.17 deg.
 Guess basis will be translated and rotated to current coordinates.
 JPrj=2 DoOrth=T DoCkMO=T.
 Initial guess orbital symmetries:
       Occupied  (A') (A') (A') (A') (A') (A') (A') (A') (A') (A')
                 (A') (A') (A') (A') (A') (A') (A') (A") (A') (A')
                 (A') (A") (A") (A') (A")
       Virtual   (A') (A') (A') (A') (A') (A') (A') (A') (A') (A')
                 (A') (A') (A') (A') (A') (A') (A') (A') (A') (A')
                 (A') (A') (A') (A') (A') (A') (A') (A') (A') (A')
                 (A') (A') (A') (A') (A') (A') (A') (A') (A') (A')
                 (A') (A') (A') (A') (A') (A') (A') (A') (A') (A')
                 (A') (A') (A') (A') (A') (A') (A') (A') (A') (A')
                 (A') (A') (A') (A') (A') (A') (A') (A') (A') (A')
                 (A') (A') (A') (A') (A') (A') (A') (A') (A') (A')
                 (A') (A') (A') (A') (A') (A') (A') (A') (A') (A')
                 (A') (A') (A') (A') (A') (A') (A') (A') (A') (A')
                 (A') (A') (A') (A') (A') (A') (A') (A') (A') (A')
                 (A') (A') (A') (A') (A') (A') (A') (A') (A') (A')
                 (A') (A') (A') (A') (A') (A') (A') (A') (A') (A')
                 (A') (A') (A') (A') (A') (A') (A') (A') (A') (A')
                 (A') (A') (A') (A') (A') (A') (A') (A') (A') (A')
                 (A') (A') (A') (A') (A') (A') (A') (A') (A') (A')
                 (A') (A') (A') (A') (A') (A') (A') (A') (A') (A")
                 (A") (A") (A") (A") (A") (A") (A") (A") (A") (A")
                 (A") (A") (A") (A") (A") (A") (A") (A") (A") (A")
                 (A") (A") (A") (A") (A") (A") (A") (A") (A") (A")
                 (A") (A") (A") (A") (A") (A") (A") (A") (A") (A")
                 (A") (A") (A") (A") (A") (A") (A") (A") (A") (A")
                 (A") (A") (A") (A") (A") (A") (A") (A") (A") (A")
                 (A") (A") (A") (A") (A") (A") (A") (A") (A") (A")
                 (A") (A") (A") (A") (A") (A") (A") (A") (A") (A")
                 (A") (A") (A") (A") (A")
 The electronic state of the initial guess is 1-A'.
 Generating alternative initial guess.
 ExpMin= 7.41D-02 ExpMax= 1.48D+04 ExpMxC= 5.05D+02 IAcc=2 IRadAn=         4 AccDes= 0.00D+00
 Harris functional with IExCor= 1009 and IRadAn=       4 diagonalized for initial guess.
 HarFok:  IExCor= 1009 AccDes= 0.00D+00 IRadAn=         4 IDoV= 1 UseB2=F ITyADJ=14
 ICtDFT=  3500011 ScaDFX=  1.000000  1.000000  1.000000  1.000000
 FoFCou: FMM=F IPFlag=           0 FMFlag=      100000 FMFlg1=           0
         NFxFlg=           0 DoJE=T BraDBF=F KetDBF=T FulRan=T
         wScrn=  0.000000 ICntrl=     500 IOpCl=  0 I1Cent=   200000004 NGrid=           0
         NMat0=    1 NMatS0=      1 NMatT0=    0 NMatD0=    1 NMtDS0=    0 NMtDT0=    0
 Petite list used in FoFCou.
 Harris En= -323.366824842710    
 Leave Link  401 at Fri Aug 27 00:03:36 2021, MaxMem= 17179869184 cpu:        58.0
 (Enter /public3/home/sc51754/softwares/g09e01/l502.exe)
 Closed shell SCF:
 Using DIIS extrapolation, IDIIS=  1040.
 Integral symmetry usage will be decided dynamically.
 Keep J ints in memory in symmetry-blocked form, NReq=1167802198.
 IVT=      348658 IEndB=      348658 NGot= 17179869184 MDV= 16785904737
 LenX= 16785904737 LenY= 16785801896
 Requested convergence on RMS density matrix=1.00D-08 within 128 cycles.
 Requested convergence on MAX density matrix=1.00D-06.
 Requested convergence on             energy=1.00D-06.
 No special actions if energy rises.
 FoFCou: FMM=F IPFlag=           0 FMFlag=           0 FMFlg1=           0
         NFxFlg=           0 DoJE=F BraDBF=F KetDBF=F FulRan=T
         wScrn=  0.000000 ICntrl=     600 IOpCl=  0 I1Cent=           0 NGrid=           0
         NMat0=    1 NMatS0=  39340 NMatT0=    0 NMatD0=    1 NMtDS0=    0 NMtDT0=    0
 Petite list used in FoFCou.
 Integral accuracy reduced to 1.0D-05 until final iterations.

 Cycle   1  Pass 0  IDiag  1:
 E= -323.701352976920    
 DIIS: error= 9.44D-04 at cycle   1 NSaved=   1.
 NSaved= 1 IEnMin= 1 EnMin= -323.701352976920     IErMin= 1 ErrMin= 9.44D-04
 ErrMax= 9.44D-04  0.00D+00 EMaxC= 1.00D-01 BMatC= 3.75D-04 BMatP= 3.75D-04
 IDIUse=3 WtCom= 9.91D-01 WtEn= 9.44D-03
 Coeff-Com:  0.100D+01
 Coeff-En:   0.100D+01
 Coeff:      0.100D+01
 Gap=     0.534 Goal=   None    Shift=    0.000
 RMSDP=8.26D-05 MaxDP=2.19D-03              OVMax= 4.93D-03

 Cycle   2  Pass 0  IDiag  1:
 E= -323.701620671732     Delta-E=       -0.000267694812 Rises=F Damp=F
 DIIS: error= 5.82D-04 at cycle   2 NSaved=   2.
 NSaved= 2 IEnMin= 2 EnMin= -323.701620671732     IErMin= 2 ErrMin= 5.82D-04
 ErrMax= 5.82D-04  0.00D+00 EMaxC= 1.00D-01 BMatC= 8.75D-05 BMatP= 3.75D-04
 IDIUse=3 WtCom= 9.94D-01 WtEn= 5.82D-03
 Coeff-Com:  0.273D+00 0.727D+00
 Coeff-En:   0.000D+00 0.100D+01
 Coeff:      0.272D+00 0.728D+00
 Gap=     0.157 Goal=   None    Shift=    0.000
 RMSDP=5.07D-05 MaxDP=2.35D-03 DE=-2.68D-04 OVMax= 4.11D-03

 Cycle   3  Pass 0  IDiag  1:
 E= -323.701639358957     Delta-E=       -0.000018687225 Rises=F Damp=F
 DIIS: error= 5.07D-04 at cycle   3 NSaved=   3.
 NSaved= 3 IEnMin= 3 EnMin= -323.701639358957     IErMin= 3 ErrMin= 5.07D-04
 ErrMax= 5.07D-04  0.00D+00 EMaxC= 1.00D-01 BMatC= 6.11D-05 BMatP= 8.75D-05
 IDIUse=3 WtCom= 9.95D-01 WtEn= 5.07D-03
 Coeff-Com:  0.492D-01 0.454D+00 0.497D+00
 Coeff-En:   0.000D+00 0.440D+00 0.560D+00
 Coeff:      0.490D-01 0.454D+00 0.497D+00
 Gap=     0.157 Goal=   None    Shift=    0.000
 RMSDP=3.03D-05 MaxDP=1.45D-03 DE=-1.87D-05 OVMax= 3.85D-03

 Cycle   4  Pass 0  IDiag  1:
 E= -323.701686161818     Delta-E=       -0.000046802861 Rises=F Damp=F
 DIIS: error= 2.56D-04 at cycle   4 NSaved=   4.
 NSaved= 4 IEnMin= 4 EnMin= -323.701686161818     IErMin= 4 ErrMin= 2.56D-04
 ErrMax= 2.56D-04  0.00D+00 EMaxC= 1.00D-01 BMatC= 1.24D-05 BMatP= 6.11D-05
 IDIUse=3 WtCom= 9.97D-01 WtEn= 2.56D-03
 Coeff-Com:  0.137D-01 0.267D+00 0.366D+00 0.353D+00
 Coeff-En:   0.000D+00 0.000D+00 0.162D+00 0.838D+00
 Coeff:      0.137D-01 0.267D+00 0.366D+00 0.354D+00
 Gap=     0.157 Goal=   None    Shift=    0.000
 RMSDP=1.04D-05 MaxDP=4.86D-04 DE=-4.68D-05 OVMax= 1.62D-03

 Cycle   5  Pass 0  IDiag  1:
 E= -323.701698074518     Delta-E=       -0.000011912700 Rises=F Damp=F
 DIIS: error= 4.59D-05 at cycle   5 NSaved=   5.
 NSaved= 5 IEnMin= 5 EnMin= -323.701698074518     IErMin= 5 ErrMin= 4.59D-05
 ErrMax= 4.59D-05  0.00D+00 EMaxC= 1.00D-01 BMatC= 3.84D-07 BMatP= 1.24D-05
 IDIUse=1 WtCom= 1.00D+00 WtEn= 0.00D+00
 Coeff-Com:  0.608D-03 0.792D-01 0.138D+00 0.190D+00 0.593D+00
 Coeff:      0.608D-03 0.792D-01 0.138D+00 0.190D+00 0.593D+00
 Gap=     0.157 Goal=   None    Shift=    0.000
 RMSDP=2.05D-06 MaxDP=9.58D-05 DE=-1.19D-05 OVMax= 3.30D-04

 Initial convergence to 1.0D-05 achieved.  Increase integral accuracy.
 Cycle   6  Pass 1  IDiag  1:
 E= -323.701630269264     Delta-E=        0.000067805254 Rises=F Damp=F
 DIIS: error= 3.46D-05 at cycle   1 NSaved=   1.
 NSaved= 1 IEnMin= 1 EnMin= -323.701630269264     IErMin= 1 ErrMin= 3.46D-05
 ErrMax= 3.46D-05  0.00D+00 EMaxC= 1.00D-01 BMatC= 3.83D-07 BMatP= 3.83D-07
 IDIUse=1 WtCom= 1.00D+00 WtEn= 0.00D+00
 Coeff-Com:  0.100D+01
 Coeff:      0.100D+01
 Gap=     0.157 Goal=   None    Shift=    0.000
 RMSDP=2.05D-06 MaxDP=9.58D-05 DE= 6.78D-05 OVMax= 4.49D-04

 Cycle   7  Pass 1  IDiag  1:
 E= -323.701630191872     Delta-E=        0.000000077391 Rises=F Damp=F
 DIIS: error= 3.91D-05 at cycle   2 NSaved=   2.
 NSaved= 2 IEnMin= 1 EnMin= -323.701630269264     IErMin= 1 ErrMin= 3.46D-05
 ErrMax= 3.91D-05  0.00D+00 EMaxC= 1.00D-01 BMatC= 3.69D-07 BMatP= 3.83D-07
 IDIUse=1 WtCom= 1.00D+00 WtEn= 0.00D+00
 Coeff-Com:  0.494D+00 0.506D+00
 Coeff:      0.494D+00 0.506D+00
 Gap=     0.157 Goal=   None    Shift=    0.000
 RMSDP=2.90D-06 MaxDP=1.51D-04 DE= 7.74D-08 OVMax= 5.24D-04

 Cycle   8  Pass 1  IDiag  1:
 E= -323.701630382021     Delta-E=       -0.000000190149 Rises=F Damp=F
 DIIS: error= 3.15D-05 at cycle   3 NSaved=   3.
 NSaved= 3 IEnMin= 3 EnMin= -323.701630382021     IErMin= 3 ErrMin= 3.15D-05
 ErrMax= 3.15D-05  0.00D+00 EMaxC= 1.00D-01 BMatC= 1.93D-07 BMatP= 3.69D-07
 IDIUse=1 WtCom= 1.00D+00 WtEn= 0.00D+00
 Coeff-Com:  0.265D-01 0.412D+00 0.561D+00
 Coeff:      0.265D-01 0.412D+00 0.561D+00
 Gap=     0.157 Goal=   None    Shift=    0.000
 RMSDP=1.53D-06 MaxDP=5.30D-05 DE=-1.90D-07 OVMax= 2.94D-04

 Cycle   9  Pass 1  IDiag  1:
 E= -323.701630575554     Delta-E=       -0.000000193532 Rises=F Damp=F
 DIIS: error= 9.91D-06 at cycle   4 NSaved=   4.
 NSaved= 4 IEnMin= 4 EnMin= -323.701630575554     IErMin= 4 ErrMin= 9.91D-06
 ErrMax= 9.91D-06  0.00D+00 EMaxC= 1.00D-01 BMatC= 3.27D-08 BMatP= 1.93D-07
 IDIUse=1 WtCom= 1.00D+00 WtEn= 0.00D+00
 Coeff-Com: -0.163D-01 0.269D+00 0.411D+00 0.336D+00
 Coeff:     -0.163D-01 0.269D+00 0.411D+00 0.336D+00
 Gap=     0.157 Goal=   None    Shift=    0.000
 RMSDP=4.77D-07 MaxDP=2.51D-05 DE=-1.94D-07 OVMax= 6.14D-05

 Cycle  10  Pass 1  IDiag  1:
 E= -323.701630605647     Delta-E=       -0.000000030093 Rises=F Damp=F
 DIIS: error= 1.15D-06 at cycle   5 NSaved=   5.
 NSaved= 5 IEnMin= 5 EnMin= -323.701630605647     IErMin= 5 ErrMin= 1.15D-06
 ErrMax= 1.15D-06  0.00D+00 EMaxC= 1.00D-01 BMatC= 2.89D-10 BMatP= 3.27D-08
 IDIUse=1 WtCom= 1.00D+00 WtEn= 0.00D+00
 Coeff-Com: -0.897D-02 0.125D+00 0.194D+00 0.174D+00 0.516D+00
 Coeff:     -0.897D-02 0.125D+00 0.194D+00 0.174D+00 0.516D+00
 Gap=     0.157 Goal=   None    Shift=    0.000
 RMSDP=6.97D-08 MaxDP=3.14D-06 DE=-3.01D-08 OVMax= 6.66D-06

 Cycle  11  Pass 1  IDiag  1:
 E= -323.701630605889     Delta-E=       -0.000000000242 Rises=F Damp=F
 DIIS: error= 5.05D-07 at cycle   6 NSaved=   6.
 NSaved= 6 IEnMin= 6 EnMin= -323.701630605889     IErMin= 6 ErrMin= 5.05D-07
 ErrMax= 5.05D-07  0.00D+00 EMaxC= 1.00D-01 BMatC= 5.24D-11 BMatP= 2.89D-10
 IDIUse=1 WtCom= 1.00D+00 WtEn= 0.00D+00
 Coeff-Com: -0.375D-02 0.486D-01 0.760D-01 0.718D-01 0.322D+00 0.485D+00
 Coeff:     -0.375D-02 0.486D-01 0.760D-01 0.718D-01 0.322D+00 0.485D+00
 Gap=     0.157 Goal=   None    Shift=    0.000
 RMSDP=2.19D-08 MaxDP=9.76D-07 DE=-2.42D-10 OVMax= 3.48D-06

 Cycle  12  Pass 1  IDiag  1:
 E= -323.701630605929     Delta-E=       -0.000000000041 Rises=F Damp=F
 DIIS: error= 2.06D-07 at cycle   7 NSaved=   7.
 NSaved= 7 IEnMin= 7 EnMin= -323.701630605929     IErMin= 7 ErrMin= 2.06D-07
 ErrMax= 2.06D-07  0.00D+00 EMaxC= 1.00D-01 BMatC= 7.32D-12 BMatP= 5.24D-11
 IDIUse=1 WtCom= 1.00D+00 WtEn= 0.00D+00
 Coeff-Com: -0.107D-02 0.118D-01 0.188D-01 0.193D-01 0.125D+00 0.303D+00
 Coeff-Com:  0.524D+00
 Coeff:     -0.107D-02 0.118D-01 0.188D-01 0.193D-01 0.125D+00 0.303D+00
 Coeff:      0.524D+00
[...]
     29  0.000000D+00 -0.416694D-04  0.329739D-03  0.000000D+00 -0.213555D-03
     30  0.627335D-02  0.000000D+00  0.000000D+00 -0.274778D-03  0.000000D+00
     31  0.000000D+00  0.624854D-04 -0.105753D-03  0.000000D+00  0.775593D-03
     32  0.000000D+00  0.503005D-04 -0.552564D-03  0.000000D+00 -0.470305D-03
     33  0.436317D-02  0.000000D+00  0.000000D+00 -0.443256D-03  0.000000D+00
     34  0.000000D+00 -0.152140D-03 -0.304105D-03  0.000000D+00  0.171656D-03
     35  0.000000D+00  0.164009D-03  0.221993D-03  0.000000D+00  0.302094D-03
     36 -0.308971D-01  0.000000D+00  0.000000D+00 -0.189658D-04  0.000000D+00
               26            27            28            29            30 
     26  0.131200D+00
     27  0.000000D+00  0.229844D-01
     28 -0.604114D-04  0.000000D+00  0.294710D+00
     29  0.148524D-03  0.000000D+00  0.107108D+00  0.113269D+00
     30  0.000000D+00 -0.179163D-02  0.000000D+00  0.000000D+00  0.254638D-01
     31  0.406258D-03  0.000000D+00 -0.106678D-02  0.990174D-03  0.000000D+00
     32  0.132855D-02  0.000000D+00 -0.818649D-03  0.505988D-03  0.000000D+00
     33  0.000000D+00 -0.444921D-02  0.000000D+00  0.000000D+00 -0.400933D-03
     34 -0.150089D-02  0.000000D+00  0.688421D-03 -0.754940D-03  0.000000D+00
     35 -0.448227D-03  0.000000D+00  0.399668D-03  0.548259D-03  0.000000D+00
     36  0.000000D+00  0.619775D-03  0.000000D+00  0.000000D+00 -0.313840D-02
               31            32            33            34            35 
     31  0.269365D+00
     32 -0.130167D+00  0.136610D+00
     33  0.000000D+00  0.000000D+00  0.258720D-01
     34  0.116719D-02  0.750006D-03  0.000000D+00  0.559251D-01
     35 -0.292098D-03  0.749011D-03  0.000000D+00  0.169150D-01  0.351336D+00
     36  0.000000D+00  0.000000D+00 -0.347931D-02  0.000000D+00  0.000000D+00
               36 
     36  0.236925D-01
 FormGI is forming the generalized inverse of G from B-inverse, IUseBI=4.
 Leave Link  716 at Fri Aug 27 00:04:57 2021, MaxMem= 17179869184 cpu:        15.7
 (Enter /public3/home/sc51754/softwares/g09e01/l103.exe)

 GradGradGradGradGradGradGradGradGradGradGradGradGradGradGradGradGradGrad
 Berny optimization.
 Red2BG is reusing G-inverse.
 Internal  Forces:  Max     0.000180485 RMS     0.000045039
 Search for a local minimum.
 Step number   1 out of a maximum of    2
 All quantities printed in internal units (Hartrees-Bohrs-Radians)
 Second derivative matrix not updated -- analytic derivatives used.
 ITU=  0
     Eigenvalues ---    0.01307   0.01626   0.01694   0.02103   0.02236
     Eigenvalues ---    0.02662   0.02909   0.03466   0.04172   0.10122
     Eigenvalues ---    0.10748   0.11897   0.12837   0.14716   0.18307
     Eigenvalues ---    0.19089   0.20744   0.22973   0.30607   0.34192
     Eigenvalues ---    0.34856   0.35211   0.35426   0.36373   0.41669
     Eigenvalues ---    0.43051   0.45732   0.48818   0.49285   0.54530
 Angle between quadratic step and forces=  19.86 degrees.
 Linear search not attempted -- first point.
 Iteration  1 RMS(Cart)=  0.00012888 RMS(Int)=  0.00000001
 Iteration  2 RMS(Cart)=  0.00000001 RMS(Int)=  0.00000000
 ITry= 1 IFail=0 DXMaxC= 4.45D-04 DCOld= 1.00D+10 DXMaxT= 3.00D-01 DXLimC= 3.00D+00 Rises=F
 ClnCor:  largest displacement from symmetrization is 3.66D-12 for atom     1.
 Variable       Old X    -DE/DX   Delta X   Delta X   Delta X     New X
                                 (Linear)    (Quad)   (Total)
    R1        2.57076   0.00017   0.00000   0.00050   0.00050   2.57126
    R2        1.84125  -0.00018   0.00000  -0.00038  -0.00038   1.84087
    R3        2.51583  -0.00002   0.00000  -0.00008  -0.00008   2.51575
    R4        2.54058  -0.00005   0.00000  -0.00018  -0.00018   2.54040
    R5        2.64832  -0.00014   0.00000  -0.00042  -0.00042   2.64789
    R6        2.62114   0.00006   0.00000   0.00022   0.00022   2.62135
    R7        2.04762   0.00000   0.00000   0.00001   0.00001   2.04763
    R8        2.62555  -0.00002   0.00000   0.00005   0.00005   2.62560
    R9        2.05408   0.00002   0.00000   0.00006   0.00006   2.05414
   R10        2.64461  -0.00005   0.00000  -0.00020  -0.00020   2.64442
   R11        2.05144   0.00001   0.00000   0.00000   0.00000   2.05144
   R12        2.04854   0.00001   0.00000   0.00003   0.00003   2.04857
    A1        1.84243  -0.00002   0.00000  -0.00013  -0.00013   1.84231
    A2        2.04890   0.00006   0.00000   0.00019   0.00019   2.04909
    A3        2.04130   0.00005   0.00000   0.00012   0.00012   2.04142
    A4        2.07352  -0.00003   0.00000  -0.00008  -0.00008   2.07343
    A5        2.16837  -0.00002   0.00000  -0.00004  -0.00004   2.16833
    A6        2.04698   0.00002   0.00000   0.00006   0.00006   2.04704
    A7        2.09920  -0.00001   0.00000   0.00006   0.00006   2.09926
    A8        2.13700  -0.00001   0.00000  -0.00012  -0.00012   2.13688
    A9        2.15385  -0.00005   0.00000  -0.00021  -0.00021   2.15364
   A10        2.01759   0.00003   0.00000   0.00019   0.00019   2.01777
   A11        2.11175   0.00002   0.00000   0.00003   0.00003   2.11178
   A12        2.08836  -0.00002   0.00000  -0.00013  -0.00013   2.08822
   A13        2.09228   0.00001   0.00000   0.00003   0.00003   2.09231
   A14        2.10255   0.00001   0.00000   0.00011   0.00011   2.10265
   A15        2.05992   0.00002   0.00000   0.00013   0.00013   2.06005
   A16        2.10464  -0.00002   0.00000  -0.00021  -0.00021   2.10443
   A17        2.11863   0.00001   0.00000   0.00007   0.00007   2.11871
    D1       -0.00000  -0.00000   0.00000   0.00000   0.00000   0.00000
    D2        3.14159   0.00000   0.00000  -0.00000   0.00000   3.14159
    D3        3.14159   0.00000   0.00000   0.00000   0.00000   3.14159
    D4       -0.00000  -0.00000   0.00000   0.00000   0.00000   0.00000
    D5        0.00000  -0.00000   0.00000  -0.00000  -0.00000   0.00000
    D6        3.14159  -0.00000   0.00000  -0.00000   0.00000   3.14159
    D7        3.14159  -0.00000   0.00000  -0.00000   0.00000   3.14159
    D8       -0.00000  -0.00000   0.00000   0.00000   0.00000   0.00000
    D9        0.00000   0.00000   0.00000  -0.00000  -0.00000   0.00000
   D10        3.14159   0.00000   0.00000  -0.00000   0.00000   3.14159
   D11       -0.00000  -0.00000   0.00000   0.00000   0.00000   0.00000
   D12        3.14159  -0.00000   0.00000   0.00000   0.00000   3.14159
   D13        3.14159  -0.00000   0.00000   0.00000   0.00000   3.14159
   D14        0.00000  -0.00000   0.00000  -0.00000   0.00000   0.00000
   D15       -0.00000   0.00000   0.00000   0.00000   0.00000   0.00000
   D16        3.14159  -0.00000   0.00000   0.00000   0.00000   3.14159
   D17        3.14159   0.00000   0.00000   0.00000   0.00000   3.14159
   D18        0.00000   0.00000   0.00000  -0.00000  -0.00000   0.00000
   D19        0.00000  -0.00000   0.00000  -0.00000   0.00000   0.00000
   D20        3.14159   0.00000   0.00000  -0.00000   0.00000   3.14159
   D21        3.14159  -0.00000   0.00000  -0.00000   0.00000   3.14159
   D22       -0.00000   0.00000   0.00000  -0.00000   0.00000   0.00000
         Item               Value     Threshold  Converged?
 Maximum Force            0.000180     0.000450     YES
 RMS     Force            0.000045     0.000300     YES
 Maximum Displacement     0.000445     0.001800     YES
 RMS     Displacement     0.000129     0.001200     YES
 Predicted change in Energy=-1.494186D-07
 Optimization completed.
    -- Stationary point found.
                           ----------------------------
                           !   Optimized Parameters   !
                           ! (Angstroms and Degrees)  !
 --------------------------                            --------------------------
 ! Name  Definition              Value          Derivative Info.                !
 --------------------------------------------------------------------------------
 ! R1    R(1,3)                  1.3604         -DE/DX =    0.0002              !
 ! R2    R(1,8)                  0.9743         -DE/DX =   -0.0002              !
 ! R3    R(2,3)                  1.3313         -DE/DX =    0.0                 !
 ! R4    R(2,5)                  1.3444         -DE/DX =   -0.0001              !
 ! R5    R(3,4)                  1.4014         -DE/DX =   -0.0001              !
 ! R6    R(4,6)                  1.387          -DE/DX =    0.0001              !
 ! R7    R(4,9)                  1.0836         -DE/DX =    0.0                 !
 ! R8    R(5,7)                  1.3894         -DE/DX =    0.0                 !
 ! R9    R(5,10)                 1.087          -DE/DX =    0.0                 !
 ! R10   R(6,7)                  1.3995         -DE/DX =   -0.0001              !
 ! R11   R(6,11)                 1.0856         -DE/DX =    0.0                 !
 ! R12   R(7,12)                 1.084          -DE/DX =    0.0                 !
 ! A1    A(3,1,8)              105.5637         -DE/DX =    0.0                 !
 ! A2    A(3,2,5)              117.3936         -DE/DX =    0.0001              !
 ! A3    A(1,3,2)              116.9579         -DE/DX =    0.0                 !
 ! A4    A(1,3,4)              118.8038         -DE/DX =    0.0                 !
 ! A5    A(2,3,4)              124.2383         -DE/DX =    0.0                 !
 ! A6    A(3,4,6)              117.2832         -DE/DX =    0.0                 !
 ! A7    A(3,4,9)              120.2754         -DE/DX =    0.0                 !
 ! A8    A(6,4,9)              122.4414         -DE/DX =    0.0                 !
 ! A9    A(2,5,7)              123.4064         -DE/DX =    0.0                 !
 ! A10   A(2,5,10)             115.5991         -DE/DX =    0.0                 !
 ! A11   A(7,5,10)             120.9945         -DE/DX =    0.0                 !
 ! A12   A(4,6,7)              119.654          -DE/DX =    0.0                 !
 ! A13   A(4,6,11)             119.879          -DE/DX =    0.0                 !
 ! A14   A(7,6,11)             120.467          -DE/DX =    0.0                 !
 ! A15   A(5,7,6)              118.0245         -DE/DX =    0.0                 !
 ! A16   A(5,7,12)             120.5867         -DE/DX =    0.0                 !
 ! A17   A(6,7,12)             121.3888         -DE/DX =    0.0                 !
 ! D1    D(8,1,3,2)              0.0            -DE/DX =    0.0                 !
 ! D2    D(8,1,3,4)            180.0            -DE/DX =    0.0                 !
 ! D3    D(5,2,3,1)            180.0            -DE/DX =    0.0                 !
 ! D4    D(5,2,3,4)              0.0            -DE/DX =    0.0                 !
 ! D5    D(3,2,5,7)              0.0            -DE/DX =    0.0                 !
 ! D6    D(3,2,5,10)           180.0            -DE/DX =    0.0                 !
 ! D7    D(1,3,4,6)            180.0            -DE/DX =    0.0                 !
 ! D8    D(1,3,4,9)              0.0            -DE/DX =    0.0                 !
 ! D9    D(2,3,4,6)              0.0            -DE/DX =    0.0                 !
 ! D10   D(2,3,4,9)            180.0            -DE/DX =    0.0                 !
 ! D11   D(3,4,6,7)              0.0            -DE/DX =    0.0                 !
 ! D12   D(3,4,6,11)           180.0            -DE/DX =    0.0                 !
 ! D13   D(9,4,6,7)            180.0            -DE/DX =    0.0                 !
 ! D14   D(9,4,6,11)             0.0            -DE/DX =    0.0                 !
 ! D15   D(2,5,7,6)              0.0            -DE/DX =    0.0                 !
 ! D16   D(2,5,7,12)           180.0            -DE/DX =    0.0                 !
 ! D17   D(10,5,7,6)           180.0            -DE/DX =    0.0                 !
 ! D18   D(10,5,7,12)            0.0            -DE/DX =    0.0                 !
 ! D19   D(4,6,7,5)              0.0            -DE/DX =    0.0                 !
 ! D20   D(4,6,7,12)           180.0            -DE/DX =    0.0                 !
 ! D21   D(11,6,7,5)           180.0            -DE/DX =    0.0                 !
 ! D22   D(11,6,7,12)            0.0            -DE/DX =    0.0                 !
 --------------------------------------------------------------------------------
 GradGradGradGradGradGradGradGradGradGradGradGradGradGradGradGradGradGrad

 Leave Link  103 at Fri Aug 27 00:04:57 2021, MaxMem= 17179869184 cpu:        35.9
 (Enter /public3/home/sc51754/softwares/g09e01/l9999.exe)
 1\1\GINC-R2613\Freq\RTPSSTPSS\Gen\C5H5N1O1\SC51754\27-Aug-2021\0\\#P G
 eom=AllCheck Guess=TCheck SCRF=Check GenChk RTPSSTPSS/ChkBas Freq\\HY_
 TPSSTPSS_PC2_OPT_FREQ\\0,1\O,0.0057617076,2.2654506891,0.\N,-1.1828944
 399,0.3027344206,0.\C,0.0043773221,0.9050620908,0.\C,1.2317263468,0.22
 8588219,0.\C,-1.1944846507,-1.0416344628,0.\C,1.1935093379,-1.15793089
 58,0.\C,-0.041285494,-1.8165627121,0.\H,-0.9325948227,2.5278327134,0.\
 H,2.1618500998,0.7844293816,0.\H,-2.1787700206,-1.5028157579,0.\H,2.11
 9530582,-1.7244610901,0.\H,-0.1039449683,-2.8987925958,0.\\Version=EM6
 4L-G09RevE.01\State=1-A'\HF=-323.7016833\RMSD=6.193e-09\RMSF=7.860e-05
 \ZeroPoint=0.0916715\Thermal=0.0969843\Dipole=0.1935763,-0.467774,0.\D
 ipoleDeriv=-0.177262,0.0930813,0.,0.0922682,-1.5304642,0.,0.,0.,-0.344
 896,-0.4555266,-0.284783,0.,0.1712454,-0.7732178,0.,0.,0.,-0.2619088,0
 .2635636,-0.1836274,0.,-0.0568631,1.7181415,0.,0.,0.,0.176081,-0.00946
 59,0.3901763,0.,-0.039094,-0.4238438,0.,0.,0.,-0.1331407,0.4355164,0.1
 38366,0.,-0.1990718,0.3795899,0.,0.,0.,-0.0177574,0.261857,0.05752,0.,
 0.0974234,0.3293235,0.,0.,0.,-0.0951033,-0.4062754,-0.1150809,0.,0.075
 7997,-0.0488337,0.,0.,0.,-0.1418912,0.1731873,-0.0072616,0.,-0.0761646
 ,0.3764608,0.,0.,0.,0.3044987,-0.0307152,-0.0602069,0.,-0.059272,0.036
 3192,0.,0.,0.,0.1442403,-0.071604,-0.0953881,0.,-0.0647524,0.0075409,0
 .,0.,0.,0.1032809,-0.0473779,0.076758,0.,0.0739851,0.0316217,0.,0.,0.,
 0.1209627,0.0641029,-0.0095539,0.,-0.015504,-0.102638,0.,0.,0.,0.14563
 39\Polar=75.7182485,-0.0591969,88.2884075,0.,0.,38.119098\PG=CS [SG(C5
 H5N1O1)]\NImag=0\\0.55123835,-0.09021258,0.43325539,0.,0.,0.03386072,-
 0.00710133,-0.03141881,0.,0.44556893,-0.06321897,-0.05209542,0.,0.1178
 1072,0.59280728,0.,0.,0.00669382,0.,0.,0.08419321,-0.10370656,-0.01253
 514,0.,-0.28604809,-0.05289405,0.,0.68063731,0.03221785,-0.27511820,0.
 ,-0.07777987,-0.15793830,0.,-0.02884603,0.67353816,0.,0.,-0.04734811,0
 .,0.,-0.06628152,0.,0.,0.17156514,0.00098960,0.01280541,0.,-0.05970622
 ,-0.02904483,0.,-0.25735719,0.09771803,0.,0.68768498,0.04819155,-0.040
 17543,0.,0.01410618,0.05589499,0.,0.03320738,-0.14452479,0.,0.05227494
 ,0.69380227,0.,0.,0.00759990,0.,0.,0.01765966,0.,0.,-0.07002265,0.,0.,
 0.11608171,-0.00478733,0.00100732,0.,-0.11137559,-0.00934368,0.,0.0144
 5165,-0.04715045,0.,-0.01403642,0.02363852,0.,0.72564368,0.00810591,0.
 00121099,0.,0.00721465,-0.32387875,0.,-0.09318346,-0.04571780,0.,0.031
 57993,-0.04551732,0.,0.03275482,0.64037220,0.,0.,0.01006779,0.,0.,-0.0
 5929079,0.,0.,-0.00400980,0.,0.,-0.00478446,0.,0.,0.14890393,-0.010977
 21,0.00368822,0.,-0.01614275,-0.03507930,0.,0.04196546,0.03040391,0.,-
 0.12485677,0.02047817,0.,-0.05929303,0.02809176,0.,0.69286113,-0.00574
 711,0.00678249,0.,-0.03026193,-0.04635935,0.,0.07650416,-0.03129418,0.
 ,-0.03358861,-0.34885036,0.,-0.01604071,0.06211167,0.,-0.03895267,0.67
 462222,0.,0.,0.00439715,0.,0.,-0.00738309,0.,0.,0.00177741,0.,0.,-0.05
 412982,0.,0.,0.00706447,0.,0.,0.13588797,0.00757650,-0.00421484,0.,0.0
 3851968,0.07323681,0.,-0.07117774,0.00016298,0.,0.02830711,-0.06644462
 ,0.,-0.27066668,0.05714400,0.,-0.27286762,-0.05023887,0.,0.63135180,-0
 .00222840,-0.00566009,0.,0.02158515,-0.05003694,0.,0.01275282,0.004953
 20,0.,-0.03355684,-0.02447488,0.,0.11822030,-0.17821060,0.,-0.10816263
 ,-0.16469658,0.,0.00248866,0.73047676,0.,0.,-0.00171047,0.,0.,0.021177
 33,0.,0.,-0.00853227,0.,0.,0.00626211,0.,0.,-0.06354504,0.,0.,-0.05919
 463,0.,0.,0.11663095,-0.43565865,0.12118164,0.,-0.00028775,-0.00343481
 ,0.,-0.00354878,0.01183460,0.,0.00271247,-0.00214426,0.,-0.00155299,-0
 .00143456,0.,0.00006323,0.00093044,0.,-0.00058135,-0.00035517,0.,0.438
 81214,0.07321773,-0.06721727,0.,0.00181929,0.00790654,0.,0.05360481,-0
 .02666702,0.,-0.00241492,-0.00735140,0.,-0.00100189,-0.00181497,0.,0.0
 0261367,0.00054212,0.,-0.00107011,0.00114746,0.,-0.12645375,0.09330513
 ,0.,0.,-0.01089533,0.,0.,-0.00364059,0.,0.,0.00104130,0.,0.,0.00343269
 ,0.,0.,-0.00072951,0.,0.,0.00152612,0.,0.,0.00055569,0.,0.,0.01009490,
 0.00167369,-0.00033031,0.,-0.00534099,0.00329625,0.,-0.01714831,-0.018
 81131,0.,-0.26362354,-0.12005269,0.,0.00042987,0.00231333,0.,0.0046367
 8,0.00171132,0.,0.00229312,0.00078674,0.,0.00002876,-0.00007616,0.,0.2
 7617025,-0.00063498,0.00108523,0.,0.00517348,-0.00032753,0.,0.01290421
 ,0.01130285,0.,-0.12141475,-0.12767945,0.,0.00032586,-0.00151463,0.,-0
 .02817602,-0.00999639,0.,0.00172941,-0.00524915,0.,-0.00029676,0.00015
 023,0.,0.13154459,0.13120000,0.,0.,-0.00163193,0.,0.,0.00586684,0.,0.,
 0.00153553,0.,0.,-0.03231040,0.,0.,-0.00036269,0.,0.,0.00157071,0.,0.,
 0.00861692,0.,0.,-0.00064827,0.,0.,0.02298436,-0.00012693,-0.00016160,
 0.,0.00536047,-0.00516299,0.,0.00291059,0.00176744,0.,0.00046037,0.000
 64909,0.,-0.28253698,-0.09492452,0.,-0.00314009,0.00438885,0.,-0.01729
 520,-0.01335628,0.,0.00010258,0.00017120,0.,-0.00006687,-0.00006041,0.
 ,0.29471045,-0.00130522,-0.00118545,0.,-0.03116694,-0.02456569,0.,-0.0
 0028692,-0.00441986,0.,0.00000366,-0.00066789,0.,-0.09335127,-0.093453
 20,0.,0.00316898,-0.00185380,0.,0.01584950,0.01134479,0.,-0.00004167,0
 .00032974,0.,-0.00021356,0.00014852,0.,0.10710820,0.11326860,0.,0.,0.0
 0057119,0.,0.,-0.00385763,0.,0.,0.01022801,0.,0.,-0.00074764,0.,0.,-0.
 03974804,0.,0.,0.00742266,0.,0.,0.00627335,0.,0.,-0.00027478,0.,0.,-0.
 00179163,0.,0.,0.02546384,0.00003706,0.00008631,0.,0.00052767,-0.00059
 893,0.,0.00186640,-0.00125325,0.,0.00431392,-0.00216819,0.,-0.00405532
 ,-0.00443634,0.,-0.25533552,0.12048658,0.,-0.01765811,0.01705199,0.,0.
 00006249,-0.00010575,0.,0.00077559,0.00040626,0.,-0.00106678,0.0009901
 7,0.,0.26936540,0.00191864,-0.00080801,0.,-0.00040724,-0.00049016,0.,-
 0.00192591,-0.00520658,0.,0.02823735,-0.01138793,0.,-0.00340248,-0.001
 00058,0.,0.11986467,-0.13176723,0.,-0.01362964,0.01201921,0.,0.0000503
 0,-0.00055256,0.,-0.00047030,0.00132855,0.,-0.00081865,0.00050599,0.,-
 0.13016675,0.13661029,0.,0.,-0.00017485,0.,0.,-0.00316700,0.,0.,0.0095
 7171,0.,0.,0.00451894,0.,0.,0.00738957,0.,0.,-0.03960085,0.,0.,0.00436
 317,0.,0.,-0.00044326,0.,0.,-0.00444921,0.,0.,-0.00040093,0.,0.,0.0258
 7202,0.00084282,0.00010438,0.,-0.00397402,0.00443377,0.,-0.00284473,-0
 .00026390,0.,-0.00488830,-0.00173608,0.,0.00777916,0.02677450,0.,0.003
 08638,-0.02919144,0.,-0.05780150,-0.01522634,0.,-0.00015214,-0.0003041
 0,0.,0.00017166,-0.00150089,0.,0.00068842,-0.00075494,0.,0.00116719,0.
 00075001,0.,0.05592505,-0.00030443,-0.00007424,0.,0.00332532,-0.000916
 68,0.,0.00069813,0.00109250,0.,-0.00259937,0.00093218,0.,-0.00565632,-
 0.01258701,0.,0.00206124,-0.00924061,0.,-0.01501329,-0.33161318,0.,0.0
 0016401,0.00022199,0.,0.00030209,-0.00044823,0.,0.00039967,0.00054826,
 0.,-0.00029210,0.00074901,0.,0.01691503,0.35133601,0.,0.,-0.00142988,0
 .,0.,0.00802976,0.,0.,0.00047525,0.,0.,0.00643998,0.,0.,-0.00095545,0.
 ,0.,0.00066191,0.,0.,-0.03089711,0.,0.,-0.00001897,0.,0.,0.00061978,0.
 ,0.,-0.00313840,0.,0.,-0.00347931,0.,0.,0.02369246\\0.00011608,-0.0002
 2765,0.,-0.00009395,0.00008035,0.,-0.00005851,0.00019074,0.,0.00014743
 ,-0.00011429,0.,0.00004608,-0.00003398,0.,0.00002896,0.00010690,0.,-0.
 00005074,-0.00008991,0.,-0.00018959,0.00005246,0.,-0.00000955,0.000014
 65,0.,0.00002642,0.00000168,0.,0.00000479,0.00001570,0.,0.00003260,0.0
 0000335,0.\\\@


 "MATHEMATICS IS THE ART OF GIVING THE SAME NAME
 TO DIFFERENT THINGS."
                    - H. POINCARE
 Job cpu time:       0 days  0 hours 41 minutes 17.8 seconds.
 File lengths (MBytes):  RWF=     80 Int=      0 D2E=      0 Chk=      7 Scr=      1
 Normal termination of Gaussian 09 at Fri Aug 27 00:04:58 2021.
