 Entering Gaussian System, Link 0=g09
 AtFile(1): pc-2.gbs
            -H     0
            S    4   1.00
                  0.754230D+02           0.240650D-02
                  0.113500D+02           0.184870D-01
                  0.259930D+01           0.897420D-01
                  0.735130D+00           0.281110D+00
            S    1   1.00
                  0.231670D+00           0.100000D+01
            S    1   1.00
                  0.741470D-01           0.100000D+01
            P    1   1.00
                  0.160000D+01           0.100000D+01
            P    1   1.00
                  0.450000D+00           0.100000D+01
            D    1   1.00
                  0.125000D+01           0.100000D+01
            ****
            -C     0
            S    7   1.00
                  0.785710D+04           0.568250D-03
                  0.117870D+04           0.439150D-02
                  0.268320D+03           0.225040D-01
                  0.759480D+02           0.866530D-01
                  0.245590D+02           0.244050D+00
                  0.862120D+01           0.441480D+00
                  0.312780D+01           0.353320D+00
            S    7   1.00
                  0.117870D+04          -0.594920D-06
                  0.268320D+03          -0.627480D-04
                  0.759480D+02          -0.757730D-03
                  0.245590D+02          -0.733080D-02
                  0.862120D+01          -0.389320D-01
                  0.312780D+01          -0.889080D-01
                  0.822020D+00           0.216890D+00
            S    1   1.00
                  0.330170D+00           0.100000D+01
            S    1   1.00
                  0.114630D+00           0.100000D+01
            P    4   1.00
                  0.337750D+02           0.602940D-02
                  0.767660D+01           0.432280D-01
                  0.223570D+01           0.163010D+00
                  0.764470D+00           0.365040D+00
            P    1   1.00
                  0.262320D+00           0.100000D+01
            P    1   1.00
                  0.846380D-01           0.100000D+01
            D    1   1.00
                  0.140000D+01           0.100000D+01
            D    1   1.00
                  0.450000D+00           0.100000D+01
            F    1   1.00
                  0.950000D+00           0.100000D+01
            ****
            -N     0
            S    7   1.00
                  0.111010D+05           0.545700D-03
                  0.166530D+04           0.421810D-02
                  0.379080D+03           0.216450D-01
                  0.107300D+03           0.837760D-01
                  0.347470D+02           0.238810D+00
                  0.122490D+02           0.439940D+00
                  0.447430D+01           0.363640D+00
            S    7   1.00
                  0.166530D+04          -0.150060D-05
                  0.379080D+03          -0.587530D-04
                  0.107300D+03          -0.774530D-03
                  0.347470D+02          -0.721610D-02
                  0.122490D+02          -0.393380D-01
                  0.447430D+01          -0.906110D-01
                  0.124040D+01           0.198820D+00
            S    1   1.00
                  0.487430D+00           0.100000D+01
            S    1   1.00
                  0.164840D+00           0.100000D+01
            P    4   1.00
                  0.479340D+02           0.617060D-02
                  0.109990D+02           0.442600D-01
                  0.324720D+01           0.168250D+00
                  0.111140D+01           0.368480D+00
            P    1   1.00
                  0.379880D+00           0.100000D+01
            P    1   1.00
                  0.120680D+00           0.100000D+01
            D    1   1.00
                  0.180000D+01           0.100000D+01
            D    1   1.00
                  0.550000D+00           0.100000D+01
            F    1   1.00
                  0.102000D+01           0.100000D+01
            ****
            -O     0
            S    7   1.00
                  0.147820D+05           0.535190D-03
                  0.221730D+04           0.413750D-02
                  0.504740D+03           0.212450D-01
                  0.142870D+03           0.824530D-01
                  0.463000D+02           0.236710D+00
                  0.163370D+02           0.440390D+00
                  0.598280D+01           0.364650D+00
            S    7   1.00
                  0.221730D+04          -0.192750D-05
                  0.504740D+03          -0.579640D-04
                  0.142870D+03          -0.794940D-03
                  0.463000D+02          -0.731250D-02
                  0.163370D+02          -0.405740D-01
                  0.598280D+01          -0.915940D-01
                  0.167180D+01           0.209400D+00
            S    1   1.00
                  0.646620D+00           0.100000D+01
            S    1   1.00
                  0.216690D+00           0.100000D+01
            P    4   1.00
                  0.604240D+02           0.689490D-02
                  0.139350D+02           0.490050D-01
                  0.415310D+01           0.182550D+00
                  0.141580D+01           0.376330D+00
            P    1   1.00
                  0.475490D+00           0.100000D+01
            P    1   1.00
                  0.145290D+00           0.100000D+01
            D    1   1.00
                  0.220000D+01           0.100000D+01
            D    1   1.00
                  0.650000D+00           0.100000D+01
            F    1   1.00
                  0.110000D+01           0.100000D+01
            ****
 Initial command:
 /public3/home/sc51754/softwares/g09e01/l1.exe "./Gau-46712.inp" -scrdir="./"
 Entering Link 1 = /public3/home/sc51754/softwares/g09e01/l1.exe PID=     46713.
  
 Copyright (c) 1988,1990,1992,1993,1995,1998,2003,2009,2015,
            Gaussian, Inc.  All Rights Reserved.
  
 This is part of the Gaussian(R) 09 program.  It is based on
 the Gaussian(R) 03 system (copyright 2003, Gaussian, Inc.),
 the Gaussian(R) 98 system (copyright 1998, Gaussian, Inc.),
 the Gaussian(R) 94 system (copyright 1995, Gaussian, Inc.),
 the Gaussian 92(TM) system (copyright 1992, Gaussian, Inc.),
 the Gaussian 90(TM) system (copyright 1990, Gaussian, Inc.),
 the Gaussian 88(TM) system (copyright 1988, Gaussian, Inc.),
 the Gaussian 86(TM) system (copyright 1986, Carnegie Mellon
 University), and the Gaussian 82(TM) system (copyright 1983,
 Carnegie Mellon University). Gaussian is a federally registered
 trademark of Gaussian, Inc.
  
 This software contains proprietary and confidential information,
 including trade secrets, belonging to Gaussian, Inc.
  
 This software is provided under written license and may be
 used, copied, transmitted, or stored only in accord with that
 written license.
  
 The following legend is applicable only to US Government
 contracts under FAR:
  
                    RESTRICTED RIGHTS LEGEND
  
 Use, reproduction and disclosure by the US Government is
 subject to restrictions as set forth in subparagraphs (a)
 and (c) of the Commercial Computer Software - Restricted
 Rights clause in FAR 52.227-19.
  
 Gaussian, Inc.
 340 Quinnipiac St., Bldg. 40, Wallingford CT 06492
  
  
 ---------------------------------------------------------------
 Warning -- This program may not be used in any manner that
 competes with the business of Gaussian, Inc. or will provide
 assistance to any competitor of Gaussian, Inc.  The licensee
 of this program is prohibited from giving any competitor of
 Gaussian, Inc. access to this program.  By using this program,
 the user acknowledges that Gaussian, Inc. is engaged in the
 business of creating and licensing software in the field of
 computational chemistry and represents and warrants to the
 licensee that it is not a competitor of Gaussian, Inc. and that
 it will not use this program in any manner prohibited above.
 ---------------------------------------------------------------
  

 Cite this work as:
 Gaussian 09, Revision E.01,
 M. J. Frisch, G. W. Trucks, H. B. Schlegel, G. E. Scuseria, 
 M. A. Robb, J. R. Cheeseman, G. Scalmani, V. Barone, B. Mennucci, 
 G. A. Petersson, H. Nakatsuji, M. Caricato, X. Li, H. P. Hratchian, 
 A. F. Izmaylov, J. Bloino, G. Zheng, J. L. Sonnenberg, M. Hada, 
 M. Ehara, K. Toyota, R. Fukuda, J. Hasegawa, M. Ishida, T. Nakajima, 
 Y. Honda, O. Kitao, H. Nakai, T. Vreven, J. A. Montgomery, Jr., 
 J. E. Peralta, F. Ogliaro, M. Bearpark, J. J. Heyd, E. Brothers, 
 K. N. Kudin, V. N. Staroverov, T. Keith, R. Kobayashi, J. Normand, 
 K. Raghavachari, A. Rendell, J. C. Burant, S. S. Iyengar, J. Tomasi, 
 M. Cossi, N. Rega, J. M. Millam, M. Klene, J. E. Knox, J. B. Cross, 
 V. Bakken, C. Adamo, J. Jaramillo, R. Gomperts, R. E. Stratmann, 
 O. Yazyev, A. J. Austin, R. Cammi, C. Pomelli, J. W. Ochterski, 
 R. L. Martin, K. Morokuma, V. G. Zakrzewski, G. A. Voth, 
 P. Salvador, J. J. Dannenberg, S. Dapprich, A. D. Daniels, 
 O. Farkas, J. B. Foresman, J. V. Ortiz, J. Cioslowski, 
 and D. J. Fox, Gaussian, Inc., Wallingford CT, 2013.
 
 ******************************************
 Gaussian 09:  EM64L-G09RevE.01 30-Nov-2015
                28-Aug-2021 
 ******************************************
 %nprocshared=64
 Will use up to   64 processors via shared memory.
 %mem=128GB
 %chk=TST_GAS_TPSSTPSS.chk
 ---------------------------------------------------
 #p opt=(calcfc,qst3,MaxCycle=200) freq TPSSTPSS/gen
 ---------------------------------------------------
 1/5=1,6=200,10=4,14=-1,18=20,26=3,27=203,38=1/1,3;
 2/9=110,12=2,17=6,18=5,40=1/2;
 3/5=7,11=2,16=1,25=1,30=1,71=2,74=2523,140=1/1,2,3;
 4//1;
 5/5=2,38=5/2;
 8/6=4,10=90,11=11/1;
 11/6=1,8=1,9=11,15=111,16=1/1,2,10;
 10/6=1,13=1/2;
 6/7=2,8=2,9=2,10=2,28=1/1;
 7/10=1,18=20,25=1/1,2,3,16;
 1/5=1,6=200,10=4,14=-1,18=20,26=3,27=203/3(2);
 2/9=110/2;
 99//99;
 2/9=110/2;
 3/5=7,6=1,11=2,16=1,25=1,30=1,71=1,74=2523,82=7/1,2,3;
 4/5=5,16=3,69=1/1;
 5/5=2,38=5/2;
 7//1,2,3,16;
 1/5=1,6=200,14=-1,18=20,26=3,27=203/3(-5);
 2/9=110/2;
 6/7=2,8=2,9=2,10=2,19=2,28=1/1;
 99/9=1/99;
 Leave Link    1 at Sat Aug 28 00:50:26 2021, MaxMem= 17179869184 cpu:         6.5
 (Enter /public3/home/sc51754/softwares/g09e01/l101.exe)
 ------------------------
 HY_TPSSTPSS_PC2_OPT_FREQ
 ------------------------
 Symbolic Z-matrix:
 Charge =  0 Multiplicity = 1
 O                    -0.00537   2.26277   0. 
 N                    -1.18427   0.29418   0. 
 C                     0.        0.90239   0. 
 C                     1.23069   0.23202   0. 
 C                    -1.18919  -1.05023   0. 
 C                     1.19936  -1.15468   0. 
 C                    -0.03216  -1.81943   0. 
 H                    -0.94501   2.52049   0. 
 H                     2.15804   0.79247   0. 
 H                    -2.17117  -1.51629   0. 
 H                     2.12818  -1.7166    0. 
 H                    -0.08944  -2.90195   0. 
 
 ------------------------
 PY_TPSSTPSS_PC2_OPT_FREQ
 ------------------------
 Symbolic Z-matrix:
 Charge =  0 Multiplicity = 1
 O                    -0.14505   2.29223   0. 
 N                    -1.14081   0.22588   0. 
 C                     0.        1.06997   0. 
 C                     1.24423   0.32968   0. 
 C                    -1.11929  -1.13714   0. 
 C                     1.26908  -1.03802   0. 
 C                     0.07085  -1.80545   0. 
 H                    -2.0265    0.72046   0. 
 H                     2.15352   0.91882   0. 
 H                    -2.08444  -1.63027   0. 
 H                     2.22476  -1.55502   0. 
 H                     0.0895   -2.88721   0. 
 
 ----------------
 TST_GAS_TPSSTPSS
 ----------------
 Symbolic Z-matrix:
 Charge =  0 Multiplicity = 1
 O                     0.1692    2.66505   0. 
 N                    -1.0097    0.69646   0. 
 C                     0.17457   1.30467   0. 
 C                     1.40526   0.6343    0. 
 C                    -1.01462  -0.64795   0. 
 C                     1.37392  -0.75239   0. 
 C                     0.14241  -1.41714   0. 
 H                    -1.11958   2.11821   0. 
 H                     2.33261   1.19475   0. 
 H                    -1.9966   -1.11401   0. 
 H                     2.30274  -1.31432   0. 
 H                     0.08512  -2.49967   0. 
 
 NAtoms=     12 NQM=       12 NQMF=       0 NMMI=      0 NMMIF=      0
                NMic=       0 NMicF=      0.
                    Isotopes and Nuclear Properties:
 (Nuclear quadrupole moments (NQMom) in fm**2, nuclear magnetic moments (NMagM)
  in nuclear magnetons)

  Atom         1           2           3           4           5           6           7           8           9          10
 IAtWgt=          16          14          12          12          12          12          12           1           1           1
 AtmWgt=  15.9949146  14.0030740  12.0000000  12.0000000  12.0000000  12.0000000  12.0000000   1.0078250   1.0078250   1.0078250
 NucSpn=           0           2           0           0           0           0           0           1           1           1
 AtZEff=   0.0000000   0.0000000   0.0000000   0.0000000   0.0000000   0.0000000   0.0000000   0.0000000   0.0000000   0.0000000
 NQMom=    0.0000000   2.0440000   0.0000000   0.0000000   0.0000000   0.0000000   0.0000000   0.0000000   0.0000000   0.0000000
 NMagM=    0.0000000   0.4037610   0.0000000   0.0000000   0.0000000   0.0000000   0.0000000   2.7928460   2.7928460   2.7928460
 AtZNuc=   8.0000000   7.0000000   6.0000000   6.0000000   6.0000000   6.0000000   6.0000000   1.0000000   1.0000000   1.0000000

  Atom        11          12
 IAtWgt=           1           1
 AtmWgt=   1.0078250   1.0078250
 NucSpn=           1           1
 AtZEff=   0.0000000   0.0000000
 NQMom=    0.0000000   0.0000000
 NMagM=    2.7928460   2.7928460
 AtZNuc=   1.0000000   1.0000000
 Leave Link  101 at Sat Aug 28 00:50:29 2021, MaxMem= 17179869184 cpu:        31.3
 (Enter /public3/home/sc51754/softwares/g09e01/l103.exe)

 GradGradGradGradGradGradGradGradGradGradGradGradGradGradGradGradGradGrad
 Berny optimization.
 Initialization pass.
                           ----------------------------
                           !    Initial Parameters    !
                           ! (Angstroms and Degrees)  !
 --------------------------                            --------------------------
 ! Name  Definition        TS        Reactant  Product Derivative Info.         !
 --------------------------------------------------------------------------------
 ! R1    R(1,3)             1.3604    1.3604    1.2308 calculate D2E/DX2 analyti!
 ! R2    R(1,8)             1.4       0.9743    2.4516 calculate D2E/DX2 analyti!
 ! R3    R(2,3)             1.3313    1.3313    1.4191 calculate D2E/DX2 analyti!
 ! R4    R(2,5)             1.3444    1.3444    1.3632 calculate D2E/DX2 analyti!
 ! R5    R(2,8)             1.426     2.2391    1.0144 calculate D2E/DX2 analyti!
 ! R6    R(3,4)             1.4014    1.4014    1.4478 calculate D2E/DX2 analyti!
 ! R7    R(4,6)             1.387     1.387     1.3679 calculate D2E/DX2 analyti!
 ! R8    R(4,9)             1.0836    1.0836    1.0835 calculate D2E/DX2 analyti!
 ! R9    R(5,7)             1.3894    1.3894    1.3649 calculate D2E/DX2 analyti!
 ! R10   R(5,10)            1.087     1.087     1.0838 calculate D2E/DX2 analyti!
 ! R11   R(6,7)             1.3995    1.3995    1.4229 calculate D2E/DX2 analyti!
 ! R12   R(6,11)            1.0856    1.0856    1.0866 calculate D2E/DX2 analyti!
 ! R13   R(7,12)            1.084     1.084     1.0819 calculate D2E/DX2 analyti!
 ! A1    A(3,1,8)          67.2342  105.5637   56.8922 calculate D2E/DX2 analyti!
 ! A2    A(3,2,5)         117.3936  117.3936  125.5935 calculate D2E/DX2 analyti!
 ! A3    A(3,2,8)          67.2355   56.6822  114.3226 calculate D2E/DX2 analyti!
 ! A4    A(5,2,8)         175.3709  174.0758  120.084  calculate D2E/DX2 analyti!
 ! A5    A(1,3,2)         116.9579  116.9579  119.7303 calculate D2E/DX2 analyti!
 ! A6    A(1,3,4)         118.8038  118.8038  127.5193 calculate D2E/DX2 analyti!
 ! A7    A(2,3,4)         124.2383  124.2383  112.7504 calculate D2E/DX2 analyti!
 ! A8    A(3,4,6)         117.2832  117.2832  121.7927 calculate D2E/DX2 analyti!
 ! A9    A(3,4,9)         120.2754  120.2754  116.3091 calculate D2E/DX2 analyti!
 ! A10   A(6,4,9)         122.4414  122.4414  121.8982 calculate D2E/DX2 analyti!
 ! A11   A(2,5,7)         123.4064  123.4064  120.2204 calculate D2E/DX2 analyti!
 ! A12   A(2,5,10)        115.5991  115.5991  116.1598 calculate D2E/DX2 analyti!
 ! A13   A(7,5,10)        120.9945  120.9945  123.6198 calculate D2E/DX2 analyti!
 ! A14   A(4,6,7)         119.654   119.654   121.5974 calculate D2E/DX2 analyti!
 ! A15   A(4,6,11)        119.879   119.879   119.4537 calculate D2E/DX2 analyti!
 ! A16   A(7,6,11)        120.467   120.467   118.949  calculate D2E/DX2 analyti!
 ! A17   A(5,7,6)         118.0245  118.0245  118.0456 calculate D2E/DX2 analyti!
 ! A18   A(5,7,12)        120.5867  120.5867  120.3038 calculate D2E/DX2 analyti!
 ! A19   A(6,7,12)        121.3888  121.3888  121.6506 calculate D2E/DX2 analyti!
 ! D1    D(8,1,3,2)         0.0       0.0       0.0    calculate D2E/DX2 analyti!
 ! D2    D(8,1,3,4)       180.0     180.0     180.0    calculate D2E/DX2 analyti!
 ! D3    D(5,2,3,1)       180.0     180.0     180.0    calculate D2E/DX2 analyti!
 ! D4    D(5,2,3,4)         0.0       0.0       0.0    calculate D2E/DX2 analyti!
 ! D5    D(8,2,3,1)         0.0       0.0       0.0    calculate D2E/DX2 analyti!
 ! D6    D(8,2,3,4)       180.0     180.0     180.0    calculate D2E/DX2 analyti!
 ! D7    D(3,2,5,7)         0.0       0.0       0.0    calculate D2E/DX2 analyti!
 ! D8    D(3,2,5,10)      180.0     180.0     180.0    calculate D2E/DX2 analyti!
 ! D9    D(8,2,5,7)       180.0       0.0     180.0    calculate D2E/DX2 analyti!
 ! D10   D(8,2,5,10)        0.0     180.0       0.0    calculate D2E/DX2 analyti!
 ! D11   D(1,3,4,6)       180.0     180.0     180.0    calculate D2E/DX2 analyti!
 ! D12   D(1,3,4,9)         0.0       0.0       0.0    calculate D2E/DX2 analyti!
 ! D13   D(2,3,4,6)         0.0       0.0       0.0    calculate D2E/DX2 analyti!
 ! D14   D(2,3,4,9)       180.0     180.0     180.0    calculate D2E/DX2 analyti!
 ! D15   D(3,4,6,7)         0.0       0.0       0.0    calculate D2E/DX2 analyti!
 ! D16   D(3,4,6,11)      180.0     180.0     180.0    calculate D2E/DX2 analyti!
 ! D17   D(9,4,6,7)       180.0     180.0     180.0    calculate D2E/DX2 analyti!
 ! D18   D(9,4,6,11)        0.0       0.0       0.0    calculate D2E/DX2 analyti!
 ! D19   D(2,5,7,6)         0.0       0.0       0.0    calculate D2E/DX2 analyti!
 ! D20   D(2,5,7,12)      180.0     180.0     180.0    calculate D2E/DX2 analyti!
 ! D21   D(10,5,7,6)      180.0     180.0     180.0    calculate D2E/DX2 analyti!
 ! D22   D(10,5,7,12)       0.0       0.0       0.0    calculate D2E/DX2 analyti!
 ! D23   D(4,6,7,5)         0.0       0.0       0.0    calculate D2E/DX2 analyti!
 ! D24   D(4,6,7,12)      180.0     180.0     180.0    calculate D2E/DX2 analyti!
 ! D25   D(11,6,7,5)      180.0     180.0     180.0    calculate D2E/DX2 analyti!
 ! D26   D(11,6,7,12)       0.0       0.0       0.0    calculate D2E/DX2 analyti!
 --------------------------------------------------------------------------------
 Trust Radius=3.00D-01 FncErr=1.00D-07 GrdErr=1.00D-06
 Number of steps in this run=    100 maximum allowed number of steps=    100.
 Search for a saddle point of order  1.
 GradGradGradGradGradGradGradGradGradGradGradGradGradGradGradGradGradGrad

 Leave Link  103 at Sat Aug 28 00:50:29 2021, MaxMem= 17179869184 cpu:         1.5
 (Enter /public3/home/sc51754/softwares/g09e01/l202.exe)
                          Input orientation:                          
 ---------------------------------------------------------------------
 Center     Atomic      Atomic             Coordinates (Angstroms)
 Number     Number       Type             X           Y           Z
 ---------------------------------------------------------------------
      1          8           0        0.169202    2.665051    0.000000
      2          7           0       -1.009699    0.696461    0.000000
      3          6           0        0.174569    1.304673    0.000000
      4          6           0        1.405260    0.634298    0.000000
      5          6           0       -1.014618   -0.647949    0.000000
      6          6           0        1.373924   -0.752394    0.000000
      7          6           0        0.142413   -1.417145    0.000000
      8          1           0       -1.119583    2.118212    0.000000
      9          1           0        2.332614    1.194748    0.000000
     10          1           0       -1.996602   -1.114009    0.000000
     11          1           0        2.302745   -1.314322    0.000000
     12          1           0        0.085125   -2.499673    0.000000
 ---------------------------------------------------------------------
                    Distance matrix (angstroms):
                    1          2          3          4          5
     1  O    0.000000
     2  N    2.294592   0.000000
     3  C    1.360389   1.331320   0.000000
     4  C    2.377351   2.415759   1.401429   0.000000
     5  C    3.518153   1.344419   2.286241   2.738607   0.000000
     6  C    3.623574   2.789416   2.381171   1.387046   2.390824
     7  C    4.082284   2.407217   2.722008   2.408983   1.389382
     8  H    1.400000   1.425990   1.528618   2.928623   2.768151
     9  H    2.615749   3.379252   2.160843   1.083554   3.820928
    10  H    4.355686   2.061984   3.250232   3.824819   1.086970
    11  H    4.515243   3.874988   3.374651   2.145367   3.383630
    12  H    5.165408   3.378448   3.805397   3.400666   2.153675
                    6          7          8          9         10
     6  C    0.000000
     7  C    1.399469   0.000000
     8  H    3.802361   3.753848   0.000000
     9  H    2.170357   3.408660   3.573576   0.000000
    10  H    3.389869   2.160388   3.349091   4.906370   0.000000
    11  H    1.085574   2.162778   4.847124   2.509248   4.304011
    12  H    2.171172   1.084043   4.772439   4.324344   2.500730
                   11         12
    11  H    0.000000
    12  H    2.514537   0.000000
 Stoichiometry    C5H5NO
 Framework group  CS[SG(C5H5NO)]
 Deg. of freedom    21
 Full point group                 CS      NOp   2
 Largest Abelian subgroup         CS      NOp   2
 Largest concise Abelian subgroup C1      NOp   1
                         Standard orientation:                         
 ---------------------------------------------------------------------
 Center     Atomic      Atomic             Coordinates (Angstroms)
 Number     Number       Type             X           Y           Z
 ---------------------------------------------------------------------
      1          8           0       -0.015709    2.278808    0.000000
      2          7           0       -1.179610    0.301312    0.000000
      3          6           0       -0.000000    0.918510    0.000000
      4          6           0        1.235752    0.257510    0.000000
      5          6           0       -1.174308   -1.043096    0.000000
      6          6           0        1.214959   -1.129380    0.000000
      7          6           0       -0.011463   -1.803474    0.000000
      8          1           0       -1.300299    1.722186    0.000000
      9          1           0        2.158818    0.824994    0.000000
     10          1           0       -2.152721   -1.516608    0.000000
     11          1           0        2.148025   -1.684230    0.000000
     12          1           0       -0.060520   -2.886406    0.000000
 ---------------------------------------------------------------------
 Rotational constants (GHZ):      5.7669439      2.8088121      1.8888436
 Leave Link  202 at Sat Aug 28 00:50:30 2021, MaxMem= 17179869184 cpu:        17.7
 (Enter /public3/home/sc51754/softwares/g09e01/l301.exe)
 General basis read from cards:  (5D, 7F)
 Centers:       8      9     10     11     12
 S 4 1.00
     Exponent=  7.5423000000D+01 Coefficients=  2.4065000000D-03
     Exponent=  1.1350000000D+01 Coefficients=  1.8487000000D-02
     Exponent=  2.5993000000D+00 Coefficients=  8.9742000000D-02
     Exponent=  7.3513000000D-01 Coefficients=  2.8111000000D-01
 S 1 1.00
     Exponent=  2.3167000000D-01 Coefficients=  1.0000000000D+00
 S 1 1.00
     Exponent=  7.4147000000D-02 Coefficients=  1.0000000000D+00
 P 1 1.00
     Exponent=  1.6000000000D+00 Coefficients=  1.0000000000D+00
 P 1 1.00
     Exponent=  4.5000000000D-01 Coefficients=  1.0000000000D+00
 D 1 1.00
     Exponent=  1.2500000000D+00 Coefficients=  1.0000000000D+00
 ****
 Centers:       3      4      5      6      7
 S 7 1.00
     Exponent=  7.8571000000D+03 Coefficients=  5.6825000000D-04
     Exponent=  1.1787000000D+03 Coefficients=  4.3915000000D-03
     Exponent=  2.6832000000D+02 Coefficients=  2.2504000000D-02
     Exponent=  7.5948000000D+01 Coefficients=  8.6653000000D-02
     Exponent=  2.4559000000D+01 Coefficients=  2.4405000000D-01
     Exponent=  8.6212000000D+00 Coefficients=  4.4148000000D-01
     Exponent=  3.1278000000D+00 Coefficients=  3.5332000000D-01
 S 7 1.00
     Exponent=  1.1787000000D+03 Coefficients= -5.9492000000D-07
     Exponent=  2.6832000000D+02 Coefficients= -6.2748000000D-05
     Exponent=  7.5948000000D+01 Coefficients= -7.5773000000D-04
     Exponent=  2.4559000000D+01 Coefficients= -7.3308000000D-03
     Exponent=  8.6212000000D+00 Coefficients= -3.8932000000D-02
     Exponent=  3.1278000000D+00 Coefficients= -8.8908000000D-02
     Exponent=  8.2202000000D-01 Coefficients=  2.1689000000D-01
 S 1 1.00
     Exponent=  3.3017000000D-01 Coefficients=  1.0000000000D+00
 S 1 1.00
     Exponent=  1.1463000000D-01 Coefficients=  1.0000000000D+00
 P 4 1.00
     Exponent=  3.3775000000D+01 Coefficients=  6.0294000000D-03
     Exponent=  7.6766000000D+00 Coefficients=  4.3228000000D-02
     Exponent=  2.2357000000D+00 Coefficients=  1.6301000000D-01
     Exponent=  7.6447000000D-01 Coefficients=  3.6504000000D-01
 P 1 1.00
     Exponent=  2.6232000000D-01 Coefficients=  1.0000000000D+00
 P 1 1.00
     Exponent=  8.4638000000D-02 Coefficients=  1.0000000000D+00
 D 1 1.00
     Exponent=  1.4000000000D+00 Coefficients=  1.0000000000D+00
 D 1 1.00
     Exponent=  4.5000000000D-01 Coefficients=  1.0000000000D+00
 F 1 1.00
     Exponent=  9.5000000000D-01 Coefficients=  1.0000000000D+00
 ****
 Centers:       2
 S 7 1.00
     Exponent=  1.1101000000D+04 Coefficients=  5.4570000000D-04
     Exponent=  1.6653000000D+03 Coefficients=  4.2181000000D-03
     Exponent=  3.7908000000D+02 Coefficients=  2.1645000000D-02
     Exponent=  1.0730000000D+02 Coefficients=  8.3776000000D-02
     Exponent=  3.4747000000D+01 Coefficients=  2.3881000000D-01
     Exponent=  1.2249000000D+01 Coefficients=  4.3994000000D-01
     Exponent=  4.4743000000D+00 Coefficients=  3.6364000000D-01
 S 7 1.00
     Exponent=  1.6653000000D+03 Coefficients= -1.5006000000D-06
     Exponent=  3.7908000000D+02 Coefficients= -5.8753000000D-05
     Exponent=  1.0730000000D+02 Coefficients= -7.7453000000D-04
     Exponent=  3.4747000000D+01 Coefficients= -7.2161000000D-03
     Exponent=  1.2249000000D+01 Coefficients= -3.9338000000D-02
     Exponent=  4.4743000000D+00 Coefficients= -9.0611000000D-02
     Exponent=  1.2404000000D+00 Coefficients=  1.9882000000D-01
 S 1 1.00
     Exponent=  4.8743000000D-01 Coefficients=  1.0000000000D+00
 S 1 1.00
     Exponent=  1.6484000000D-01 Coefficients=  1.0000000000D+00
 P 4 1.00
     Exponent=  4.7934000000D+01 Coefficients=  6.1706000000D-03
     Exponent=  1.0999000000D+01 Coefficients=  4.4260000000D-02
     Exponent=  3.2472000000D+00 Coefficients=  1.6825000000D-01
     Exponent=  1.1114000000D+00 Coefficients=  3.6848000000D-01
 P 1 1.00
     Exponent=  3.7988000000D-01 Coefficients=  1.0000000000D+00
 P 1 1.00
     Exponent=  1.2068000000D-01 Coefficients=  1.0000000000D+00
 D 1 1.00
     Exponent=  1.8000000000D+00 Coefficients=  1.0000000000D+00
 D 1 1.00
     Exponent=  5.5000000000D-01 Coefficients=  1.0000000000D+00
 F 1 1.00
     Exponent=  1.0200000000D+00 Coefficients=  1.0000000000D+00
 ****
 Centers:       1
 S 7 1.00
     Exponent=  1.4782000000D+04 Coefficients=  5.3519000000D-04
     Exponent=  2.2173000000D+03 Coefficients=  4.1375000000D-03
     Exponent=  5.0474000000D+02 Coefficients=  2.1245000000D-02
     Exponent=  1.4287000000D+02 Coefficients=  8.2453000000D-02
     Exponent=  4.6300000000D+01 Coefficients=  2.3671000000D-01
     Exponent=  1.6337000000D+01 Coefficients=  4.4039000000D-01
     Exponent=  5.9828000000D+00 Coefficients=  3.6465000000D-01
 S 7 1.00
     Exponent=  2.2173000000D+03 Coefficients= -1.9275000000D-06
     Exponent=  5.0474000000D+02 Coefficients= -5.7964000000D-05
     Exponent=  1.4287000000D+02 Coefficients= -7.9494000000D-04
     Exponent=  4.6300000000D+01 Coefficients= -7.3125000000D-03
     Exponent=  1.6337000000D+01 Coefficients= -4.0574000000D-02
     Exponent=  5.9828000000D+00 Coefficients= -9.1594000000D-02
     Exponent=  1.6718000000D+00 Coefficients=  2.0940000000D-01
 S 1 1.00
     Exponent=  6.4662000000D-01 Coefficients=  1.0000000000D+00
 S 1 1.00
     Exponent=  2.1669000000D-01 Coefficients=  1.0000000000D+00
 P 4 1.00
     Exponent=  6.0424000000D+01 Coefficients=  6.8949000000D-03
     Exponent=  1.3935000000D+01 Coefficients=  4.9005000000D-02
     Exponent=  4.1531000000D+00 Coefficients=  1.8255000000D-01
     Exponent=  1.4158000000D+00 Coefficients=  3.7633000000D-01
 P 1 1.00
     Exponent=  4.7549000000D-01 Coefficients=  1.0000000000D+00
 P 1 1.00
     Exponent=  1.4529000000D-01 Coefficients=  1.0000000000D+00
 D 1 1.00
     Exponent=  2.2000000000D+00 Coefficients=  1.0000000000D+00
 D 1 1.00
     Exponent=  6.5000000000D-01 Coefficients=  1.0000000000D+00
 F 1 1.00
     Exponent=  1.1000000000D+00 Coefficients=  1.0000000000D+00
 ****
 Ernie: Thresh=  0.10000D-02 Tol=  0.10000D-05 Strict=F.
 Ernie:  7 primitive shells out of 220 were deleted.
 There are   223 symmetry adapted cartesian basis functions of A'  symmetry.
 There are    97 symmetry adapted cartesian basis functions of A"  symmetry.
 There are   190 symmetry adapted basis functions of A'  symmetry.
 There are    90 symmetry adapted basis functions of A"  symmetry.
   280 basis functions,   475 primitive gaussians,   320 cartesian basis functions
    25 alpha electrons       25 beta electrons
       nuclear repulsion energy       275.7253789716 Hartrees.
 IExCor= 2523 DFT=T Ex=TPSS Corr=TPSS ExCW=0 ScaHFX=  0.000000
 ScaDFX=  1.000000  1.000000  1.000000  1.000000 ScalE2=  1.000000  1.000000
 IRadAn=      0 IRanWt=     -1 IRanGd=            0 ICorTp=0 IEmpDi=  4
 NAtoms=   12 NActive=   12 NUniq=   12 SFac= 1.00D+00 NAtFMM=   60 NAOKFM=F Big=F
 Integral buffers will be    131072 words long.
 Raffenetti 2 integral format.
 Two-electron integral symmetry is turned on.
 Leave Link  301 at Sat Aug 28 00:50:31 2021, MaxMem= 17179869184 cpu:        13.6
 (Enter /public3/home/sc51754/softwares/g09e01/l302.exe)
 NPDir=0 NMtPBC=     1 NCelOv=     1 NCel=       1 NClECP=     1 NCelD=      1
         NCelK=      1 NCelE2=     1 NClLst=     1 CellRange=     0.0.
 One-electron integrals computed using PRISM.
 NBasis=   280 RedAO= T EigKep=  2.28D-04  NBF=   190    90
 NBsUse=   280 1.00D-06 EigRej= -1.00D+00 NBFU=   190    90
 Precomputing XC quadrature grid using
 IXCGrd= 4 IRadAn=           0 IRanWt=          -1 IRanGd=           0 AccXCQ= 0.00D+00.
 Generated NRdTot=       0 NPtTot=           0 NUsed=           0 NTot=          32
 NSgBfM=   320   320   320   320   320 MxSgAt=    12 MxSgA2=    12.
 Leave Link  302 at Sat Aug 28 00:50:34 2021, MaxMem= 17179869184 cpu:        91.4
 (Enter /public3/home/sc51754/softwares/g09e01/l303.exe)
 DipDrv:  MaxL=1.
 Leave Link  303 at Sat Aug 28 00:50:35 2021, MaxMem= 17179869184 cpu:        38.3
 (Enter /public3/home/sc51754/softwares/g09e01/l401.exe)
 ExpMin= 7.41D-02 ExpMax= 1.48D+04 ExpMxC= 5.05D+02 IAcc=2 IRadAn=         4 AccDes= 0.00D+00
 Harris functional with IExCor= 1009 and IRadAn=       4 diagonalized for initial guess.
 HarFok:  IExCor= 1009 AccDes= 0.00D+00 IRadAn=         4 IDoV= 1 UseB2=F ITyADJ=14
 ICtDFT=  3500011 ScaDFX=  1.000000  1.000000  1.000000  1.000000
 FoFCou: FMM=F IPFlag=           0 FMFlag=      100000 FMFlg1=           0
         NFxFlg=           0 DoJE=T BraDBF=F KetDBF=T FulRan=T
         wScrn=  0.000000 ICntrl=     500 IOpCl=  0 I1Cent=   200000004 NGrid=           0
         NMat0=    1 NMatS0=      1 NMatT0=    0 NMatD0=    1 NMtDS0=    0 NMtDT0=    0
 Petite list used in FoFCou.
 Harris En= -323.292978498414    
 JPrj=0 DoOrth=F DoCkMO=F.
 Initial guess orbital symmetries:
       Occupied  (A') (A') (A') (A') (A') (A') (A') (A') (A') (A')
                 (A') (A') (A') (A') (A') (A') (A') (A') (A") (A')
                 (A") (A') (A') (A") (A")
       Virtual   (A") (A") (A') (A') (A") (A') (A') (A') (A') (A')
                 (A') (A') (A") (A') (A') (A") (A") (A') (A') (A')
                 (A') (A') (A') (A") (A") (A') (A') (A') (A') (A')
                 (A') (A') (A") (A") (A') (A') (A') (A') (A') (A')
                 (A') (A') (A") (A') (A') (A") (A') (A") (A') (A")
                 (A') (A') (A') (A") (A") (A') (A") (A') (A') (A')
                 (A') (A") (A') (A') (A") (A') (A') (A") (A') (A")
                 (A') (A") (A") (A') (A") (A') (A') (A") (A') (A")
                 (A') (A") (A') (A') (A") (A') (A") (A') (A') (A")
                 (A') (A") (A') (A') (A') (A') (A') (A") (A') (A')
                 (A') (A') (A") (A') (A') (A') (A") (A') (A') (A')
                 (A') (A") (A') (A') (A') (A') (A") (A') (A') (A')
                 (A') (A") (A') (A") (A') (A") (A') (A") (A") (A")
                 (A') (A") (A') (A") (A') (A') (A') (A') (A") (A')
                 (A') (A') (A') (A") (A') (A") (A") (A') (A') (A')
                 (A') (A') (A') (A") (A") (A") (A") (A') (A') (A")
                 (A") (A') (A") (A') (A') (A") (A') (A') (A") (A')
                 (A') (A") (A') (A") (A') (A') (A") (A") (A") (A")
                 (A') (A") (A') (A') (A") (A") (A') (A") (A') (A")
                 (A") (A') (A") (A') (A') (A') (A") (A") (A') (A")
                 (A') (A') (A") (A") (A') (A') (A') (A") (A') (A')
                 (A') (A") (A") (A') (A') (A') (A") (A') (A') (A")
                 (A') (A") (A') (A") (A') (A') (A') (A") (A') (A')
                 (A') (A") (A') (A') (A') (A') (A') (A') (A") (A')
                 (A') (A') (A") (A') (A') (A') (A') (A') (A') (A')
                 (A') (A') (A') (A') (A')
 The electronic state of the initial guess is 1-A'.
 Leave Link  401 at Sat Aug 28 00:50:38 2021, MaxMem= 17179869184 cpu:        66.2
 (Enter /public3/home/sc51754/softwares/g09e01/l502.exe)
 Closed shell SCF:
 Using DIIS extrapolation, IDIIS=  1040.
 Integral symmetry usage will be decided dynamically.
 Keep J ints in memory in symmetry-blocked form, NReq=1167802198.
 IVT=      348658 IEndB=      348658 NGot= 17179869184 MDV= 16785904737
 LenX= 16785904737 LenY= 16785801896
 Requested convergence on RMS density matrix=1.00D-08 within 128 cycles.
 Requested convergence on MAX density matrix=1.00D-06.
 Requested convergence on             energy=1.00D-06.
 No special actions if energy rises.
 FoFCou: FMM=F IPFlag=           0 FMFlag=           0 FMFlg1=           0
         NFxFlg=           0 DoJE=F BraDBF=F KetDBF=F FulRan=T
         wScrn=  0.000000 ICntrl=     600 IOpCl=  0 I1Cent=           0 NGrid=           0
         NMat0=    1 NMatS0=  39340 NMatT0=    0 NMatD0=    1 NMtDS0=    0 NMtDT0=    0
 Petite list used in FoFCou.
 Integral accuracy reduced to 1.0D-05 until final iterations.

 Cycle   1  Pass 0  IDiag  1:
 E= -323.481554268134    
 DIIS: error= 2.10D-02 at cycle   1 NSaved=   1.
 NSaved= 1 IEnMin= 1 EnMin= -323.481554268134     IErMin= 1 ErrMin= 2.10D-02
 ErrMax= 2.10D-02  0.00D+00 EMaxC= 1.00D-01 BMatC= 1.59D-01 BMatP= 1.59D-01
 IDIUse=3 WtCom= 7.90D-01 WtEn= 2.10D-01
 Coeff-Com:  0.100D+01
 Coeff-En:   0.100D+01
 Coeff:      0.100D+01
 Gap=     0.100 Goal=   None    Shift=    0.000
 GapD=    0.100 DampG=0.500 DampE=0.500 DampFc=0.2500 IDamp=-1.
 Damping current iteration by 2.50D-01
 RMSDP=3.43D-03 MaxDP=1.49D-01              OVMax= 3.16D-01

 Cycle   2  Pass 0  IDiag  1:
 E= -323.526144325430     Delta-E=       -0.044590057296 Rises=F Damp=T
 DIIS: error= 1.19D-02 at cycle   2 NSaved=   2.
 NSaved= 2 IEnMin= 2 EnMin= -323.526144325430     IErMin= 2 ErrMin= 1.19D-02
 ErrMax= 1.19D-02  0.00D+00 EMaxC= 1.00D-01 BMatC= 3.19D-02 BMatP= 1.59D-01
 IDIUse=3 WtCom= 8.81D-01 WtEn= 1.19D-01
 Coeff-Com: -0.245D+00 0.124D+01
 Coeff-En:   0.936D-01 0.906D+00
 Coeff:     -0.204D+00 0.120D+01
 Gap=     0.152 Goal=   None    Shift=    0.000
 RMSDP=1.24D-03 MaxDP=4.69D-02 DE=-4.46D-02 OVMax= 3.09D-01

 Cycle   3  Pass 0  IDiag  1:
 E= -323.533944388424     Delta-E=       -0.007800062994 Rises=F Damp=F
 DIIS: error= 1.82D-02 at cycle   3 NSaved=   3.
 NSaved= 3 IEnMin= 3 EnMin= -323.533944388424     IErMin= 2 ErrMin= 1.19D-02
 ErrMax= 1.82D-02  0.00D+00 EMaxC= 1.00D-01 BMatC= 1.04D-01 BMatP= 3.19D-02
 IDIUse=2 WtCom= 0.00D+00 WtEn= 1.00D+00
 Coeff-En:   0.000D+00 0.468D+00 0.532D+00
 Coeff:      0.000D+00 0.468D+00 0.532D+00
 Gap=     0.111 Goal=   None    Shift=    0.000
 RMSDP=2.08D-03 MaxDP=8.78D-02 DE=-7.80D-03 OVMax= 3.46D-01

 Cycle   4  Pass 0  IDiag  1:
 E= -323.344907672364     Delta-E=        0.189036716059 Rises=F Damp=F
 DIIS: error= 3.20D-02 at cycle   4 NSaved=   4.
 NSaved= 4 IEnMin= 3 EnMin= -323.533944388424     IErMin= 2 ErrMin= 1.19D-02
 ErrMax= 3.20D-02  0.00D+00 EMaxC= 1.00D-01 BMatC= 3.29D-01 BMatP= 3.19D-02
 IDIUse=2 WtCom= 0.00D+00 WtEn= 1.00D+00
 EnCoef did     2 forward-backward iterations
 Coeff-En:   0.213D-01 0.000D+00 0.658D+00 0.320D+00
 Coeff:      0.213D-01 0.000D+00 0.658D+00 0.320D+00
 Gap=     0.128 Goal=   None    Shift=    0.000
 RMSDP=1.26D-03 MaxDP=6.04D-02 DE= 1.89D-01 OVMax= 2.14D-01

 Cycle   5  Pass 0  IDiag  1:
 E= -323.614891978308     Delta-E=       -0.269984305944 Rises=F Damp=F
 DIIS: error= 8.48D-03 at cycle   5 NSaved=   5.
 NSaved= 5 IEnMin= 5 EnMin= -323.614891978308     IErMin= 5 ErrMin= 8.48D-03
 ErrMax= 8.48D-03  0.00D+00 EMaxC= 1.00D-01 BMatC= 1.59D-02 BMatP= 3.19D-02
 IDIUse=3 WtCom= 9.15D-01 WtEn= 8.48D-02
 Coeff-Com: -0.181D+00 0.317D+00 0.304D+00 0.225D-01 0.538D+00
 Coeff-En:   0.000D+00 0.000D+00 0.179D+00 0.000D+00 0.821D+00
 Coeff:     -0.166D+00 0.290D+00 0.293D+00 0.206D-01 0.562D+00
 Gap=     0.132 Goal=   None    Shift=    0.000
 RMSDP=4.11D-04 MaxDP=2.12D-02 DE=-2.70D-01 OVMax= 4.44D-02

 Cycle   6  Pass 0  IDiag  1:
 E= -323.627755936412     Delta-E=       -0.012863958103 Rises=F Damp=F
 DIIS: error= 3.64D-03 at cycle   6 NSaved=   6.
 NSaved= 6 IEnMin= 6 EnMin= -323.627755936412     IErMin= 6 ErrMin= 3.64D-03
 ErrMax= 3.64D-03  0.00D+00 EMaxC= 1.00D-01 BMatC= 2.56D-03 BMatP= 1.59D-02
 IDIUse=3 WtCom= 9.64D-01 WtEn= 3.64D-02
 Coeff-Com: -0.174D+00 0.240D+00 0.136D+00-0.458D-01 0.451D+00 0.392D+00
 Coeff-En:   0.000D+00 0.000D+00 0.000D+00 0.000D+00 0.777D-01 0.922D+00
 Coeff:     -0.167D+00 0.231D+00 0.131D+00-0.441D-01 0.438D+00 0.411D+00
 Gap=     0.134 Goal=   None    Shift=    0.000
 RMSDP=1.50D-04 MaxDP=5.87D-03 DE=-1.29D-02 OVMax= 2.29D-02

 Cycle   7  Pass 0  IDiag  1:
 E= -323.630315422445     Delta-E=       -0.002559486034 Rises=F Damp=F
 DIIS: error= 4.18D-04 at cycle   7 NSaved=   7.
 NSaved= 7 IEnMin= 7 EnMin= -323.630315422445     IErMin= 7 ErrMin= 4.18D-04
 ErrMax= 4.18D-04  0.00D+00 EMaxC= 1.00D-01 BMatC= 6.34D-05 BMatP= 2.56D-03
 IDIUse=3 WtCom= 9.96D-01 WtEn= 4.18D-03
 Coeff-Com: -0.630D-01 0.826D-01 0.459D-01-0.160D-01 0.169D+00 0.214D+00
 Coeff-Com:  0.567D+00
 Coeff-En:   0.000D+00 0.000D+00 0.000D+00 0.000D+00 0.000D+00 0.000D+00
 Coeff-En:   0.100D+01
 Coeff:     -0.627D-01 0.823D-01 0.457D-01-0.160D-01 0.169D+00 0.213D+00
 Coeff:      0.569D+00
 Gap=     0.134 Goal=   None    Shift=    0.000
 RMSDP=2.81D-05 MaxDP=9.58D-04 DE=-2.56D-03 OVMax= 5.56D-03

 Cycle   8  Pass 0  IDiag  1:
 E= -323.630365503115     Delta-E=       -0.000050080670 Rises=F Damp=F
 DIIS: error= 2.44D-04 at cycle   8 NSaved=   8.
 NSaved= 8 IEnMin= 8 EnMin= -323.630365503115     IErMin= 8 ErrMin= 2.44D-04
 ErrMax= 2.44D-04  0.00D+00 EMaxC= 1.00D-01 BMatC= 1.12D-05 BMatP= 6.34D-05
 IDIUse=3 WtCom= 9.98D-01 WtEn= 2.44D-03
 Coeff-Com: -0.744D-02 0.708D-02 0.380D-02-0.719D-03 0.227D-01 0.664D-01
 Coeff-Com:  0.398D+00 0.510D+00
 Coeff-En:   0.000D+00 0.000D+00 0.000D+00 0.000D+00 0.000D+00 0.000D+00
 Coeff-En:   0.138D+00 0.862D+00
 Coeff:     -0.742D-02 0.707D-02 0.379D-02-0.717D-03 0.226D-01 0.662D-01
 Coeff:      0.398D+00 0.511D+00
 Gap=     0.134 Goal=   None    Shift=    0.000
 RMSDP=9.98D-06 MaxDP=6.18D-04 DE=-5.01D-05 OVMax= 1.89D-03

 Initial convergence to 1.0D-05 achieved.  Increase integral accuracy.
 Cycle   9  Pass 1  IDiag  1:
 E= -323.630313394591     Delta-E=        0.000052108524 Rises=F Damp=F
 DIIS: error= 8.85D-05 at cycle   1 NSaved=   1.
 NSaved= 1 IEnMin= 1 EnMin= -323.630313394591     IErMin= 1 ErrMin= 8.85D-05
 ErrMax= 8.85D-05  0.00D+00 EMaxC= 1.00D-01 BMatC= 8.93D-07 BMatP= 8.93D-07
 IDIUse=1 WtCom= 1.00D+00 WtEn= 0.00D+00
 Coeff-Com:  0.100D+01
 Coeff:      0.100D+01
 Gap=     0.134 Goal=   None    Shift=    0.000
 RMSDP=9.98D-06 MaxDP=6.18D-04 DE= 5.21D-05 OVMax= 1.32D-03

 Cycle  10  Pass 1  IDiag  1:
 E= -323.630310080859     Delta-E=        0.000003313732 Rises=F Damp=F
 DIIS: error= 2.30D-04 at cycle   2 NSaved=   2.
 NSaved= 2 IEnMin= 1 EnMin= -323.630313394591     IErMin= 1 ErrMin= 8.85D-05
 ErrMax= 2.30D-04  0.00D+00 EMaxC= 1.00D-01 BMatC= 3.73D-06 BMatP= 8.93D-07
 IDIUse=3 WtCom= 3.97D-01 WtEn= 6.03D-01
 Coeff-Com:  0.687D+00 0.313D+00
 Coeff-En:   0.782D+00 0.218D+00
 Coeff:      0.744D+00 0.256D+00
 Gap=     0.134 Goal=   None    Shift=    0.000
 RMSDP=5.00D-06 MaxDP=2.09D-04 DE= 3.31D-06 OVMax= 9.61D-04

 Cycle  11  Pass 1  IDiag  1:
 E= -323.630314267145     Delta-E=       -0.000004186286 Rises=F Damp=F
 DIIS: error= 1.52D-05 at cycle   3 NSaved=   3.
 NSaved= 3 IEnMin= 3 EnMin= -323.630314267145     IErMin= 3 ErrMin= 1.52D-05
 ErrMax= 1.52D-05  0.00D+00 EMaxC= 1.00D-01 BMatC= 6.27D-08 BMatP= 8.93D-07
 IDIUse=1 WtCom= 1.00D+00 WtEn= 0.00D+00
 Coeff-Com:  0.189D+00 0.204D-01 0.790D+00
 Coeff:      0.189D+00 0.204D-01 0.790D+00
 Gap=     0.134 Goal=   None    Shift=    0.000
 RMSDP=1.44D-06 MaxDP=7.06D-05 DE=-4.19D-06 OVMax= 1.72D-04

 Cycle  12  Pass 1  IDiag  1:
 E= -323.630314159163     Delta-E=        0.000000107982 Rises=F Damp=F
 DIIS: error= 2.68D-05 at cycle   4 NSaved=   4.
 NSaved= 4 IEnMin= 3 EnMin= -323.630314267145     IErMin= 3 ErrMin= 1.52D-05
 ErrMax= 2.68D-05  0.00D+00 EMaxC= 1.00D-01 BMatC= 1.99D-07 BMatP= 6.27D-08
 IDIUse=1 WtCom= 1.00D+00 WtEn= 0.00D+00
 Coeff-Com:  0.262D-01-0.433D-01 0.714D+00 0.303D+00
 Coeff:      0.262D-01-0.433D-01 0.714D+00 0.303D+00
 Gap=     0.134 Goal=   None    Shift=    0.000
 RMSDP=1.07D-06 MaxDP=5.30D-05 DE= 1.08D-07 OVMax= 1.47D-04

 Cycle  13  Pass 1  IDiag  1:
 E= -323.630314318675     Delta-E=       -0.000000159512 Rises=F Damp=F
 DIIS: error= 2.24D-06 at cycle   5 NSaved=   5.
 NSaved= 5 IEnMin= 5 EnMin= -323.630314318675     IErMin= 5 ErrMin= 2.24D-06
 ErrMax= 2.24D-06  0.00D+00 EMaxC= 1.00D-01 BMatC= 2.41D-09 BMatP= 6.27D-08
 IDIUse=1 WtCom= 1.00D+00 WtEn= 0.00D+00
 Coeff-Com: -0.673D-02-0.249D-01 0.287D+00 0.157D+00 0.588D+00
 Coeff:     -0.673D-02-0.249D-01 0.287D+00 0.157D+00 0.588D+00
 Gap=     0.134 Goal=   None    Shift=    0.000
 RMSDP=1.53D-07 MaxDP=8.08D-06 DE=-1.60D-07 OVMax= 1.76D-05

 Cycle  14  Pass 1  IDiag  1:
 E= -323.630314320589     Delta-E=       -0.000000001914 Rises=F Damp=F
 DIIS: error= 9.03D-07 at cycle   6 NSaved=   6.
 NSaved= 6 IEnMin= 6 EnMin= -323.630314320589     IErMin= 6 ErrMin= 9.03D-07
 ErrMax= 9.03D-07  0.00D+00 EMaxC= 1.00D-01 BMatC= 2.55D-10 BMatP= 2.41D-09
 IDIUse=1 WtCom= 1.00D+00 WtEn= 0.00D+00
 Coeff-Com: -0.514D-02-0.137D-01 0.152D+00 0.862D-01 0.366D+00 0.414D+00
 Coeff:     -0.514D-02-0.137D-01 0.152D+00 0.862D-01 0.366D+00 0.414D+00
 Gap=     0.134 Goal=   None    Shift=    0.000
 RMSDP=4.10D-08 MaxDP=2.36D-06 DE=-1.91D-09 OVMax= 6.13D-06

 Cycle  15  Pass 1  IDiag  1:
 E= -323.630314320818     Delta-E=       -0.000000000229 Rises=F Damp=F
 DIIS: error= 1.03D-07 at cycle   7 NSaved=   7.
 NSaved= 7 IEnMin= 7 EnMin= -323.630314320818     IErMin= 7 ErrMin= 1.03D-07
 ErrMax= 1.03D-07  0.00D+00 EMaxC= 1.00D-01 BMatC= 4.60D-12 BMatP= 2.55D-10
 IDIUse=1 WtCom= 1.00D+00 WtEn= 0.00D+00
 Coeff-Com: -0.154D-02-0.356D-02 0.402D-01 0.232D-01 0.104D+00 0.169D+00
 Coeff-Com:  0.669D+00
 Coeff:     -0.154D-02-0.356D-02 0.402D-01 0.232D-01 0.104D+00 0.169D+00
 Coeff:      0.669D+00
 Gap=     0.134 Goal=   None    Shift=    0.000
 RMSDP=9.68D-09 MaxDP=4.21D-07 DE=-2.29D-10 OVMax= 1.25D-06

 SCF Done:  E(RTPSS-TPSS) =  -323.630314321     A.U. after   15 cycles
            NFock= 15  Conv=0.97D-08     -V/T= 2.0045
 KE= 3.221913943089D+02 PE=-1.306205680034D+03 EE= 3.846585924327D+02
 Leave Link  502 at Sat Aug 28 00:50:49 2021, MaxMem= 17179869184 cpu:       403.5
 (Enter /public3/home/sc51754/softwares/g09e01/l801.exe)
 Range of M.O.s used for correlation:     1   280
 NBasis=   280 NAE=    25 NBE=    25 NFC=     0 NFV=     0
 NROrb=    280 NOA=    25 NOB=    25 NVA=   255 NVB=   255

 **** Warning!!: The largest alpha MO coefficient is  0.19981378D+02

 Leave Link  801 at Sat Aug 28 00:50:49 2021, MaxMem= 17179869184 cpu:         0.6
 (Enter /public3/home/sc51754/softwares/g09e01/l1101.exe)
 Using compressed storage, NAtomX=    12.
 Will process     13 centers per pass.
 Leave Link 1101 at Sat Aug 28 00:50:50 2021, MaxMem= 17179869184 cpu:        50.5
 (Enter /public3/home/sc51754/softwares/g09e01/l1102.exe)
 Symmetrizing basis deriv contribution to polar:
 IMax=3 JMax=2 DiffMx= 0.00D+00
 Leave Link 1102 at Sat Aug 28 00:50:52 2021, MaxMem= 17179869184 cpu:        12.5
 (Enter /public3/home/sc51754/softwares/g09e01/l1110.exe)
 Forming Gx(P) for the SCF density, NAtomX=    12.
 Integral derivatives from FoFJK, PRISM(SPDF).
 Do as many integral derivatives as possible in FoFJK.
 G2DrvN: MDV=   17179868984.
 G2DrvN: will do    13 centers at a time, making    1 passes.
 Calling FoFCou, ICntrl=  3507 FMM=F I1Cent=   0 AccDes= 0.00D+00.
 FoFJK:  IHMeth= 1 ICntrl=    3507 DoSepK=F KAlg= 0 I1Cent=   0 FoldK=F
 IRaf=         0 NMat=   1 IRICut=       1 DoRegI=T DoRafI=F ISym2E= 1.
 FoFCou: FMM=F IPFlag=           0 FMFlag=      100000 FMFlg1=           0
         NFxFlg=           0 DoJE=F BraDBF=F KetDBF=F FulRan=T
         wScrn=  0.000000 ICntrl=    3507 IOpCl=  0 I1Cent=           0 NGrid=           0
         NMat0=    1 NMatS0=      1 NMatT0=    0 NMatD0=    1 NMtDS0=    0 NMtDT0=    0
 Petite list used in FoFCou.
 End of G2Drv F.D. properties file   721 does not exist.
 End of G2Drv F.D. properties file   722 does not exist.
 End of G2Drv F.D. properties file   788 does not exist.
 Leave Link 1110 at Sat Aug 28 00:50:58 2021, MaxMem= 17179869184 cpu:       345.4
 (Enter /public3/home/sc51754/softwares/g09e01/l1002.exe)
 Minotr:  Closed shell wavefunction.
          IDoAtm=111111111111
          Direct CPHF calculation.
          Differentiating once with respect to nuclear coordinates.
          Using symmetry in CPHF.
          Requested convergence is 1.0D-08 RMS, and 1.0D-07 maximum.
          Secondary convergence is 1.0D-12 RMS, and 1.0D-12 maximum.
          NewPWx=T KeepS1=F KeepF1=F KeepIn=T MapXYZ=F SortEE=F KeepMc=T.
          MDV=   17179868780 using IRadAn=       2.
 Generate precomputed XC quadrature information.
 Keep J ints in memory in symmetry-blocked form, NReq=1167458725.
 FoFCou: FMM=F IPFlag=           0 FMFlag=           0 FMFlg1=           0
         NFxFlg=           0 DoJE=F BraDBF=F KetDBF=F FulRan=T
         wScrn=  0.000000 ICntrl=     600 IOpCl=  0 I1Cent=           0 NGrid=           0
         NMat0=    1 NMatS0=  39340 NMatT0=    0 NMatD0=    1 NMtDS0=    0 NMtDT0=    0
 Petite list used in FoFCou.
          Solving linear equations simultaneously, MaxMat=       0.
          There are    39 degrees of freedom in the 1st order CPHF.  IDoFFX=6 NUNeed=     0.
     33 vectors produced by pass  0 Test12= 1.63D-14 2.56D-09 XBig12= 1.89D-01 1.56D-01.
 AX will form    33 AO Fock derivatives at one time.
     33 vectors produced by pass  1 Test12= 1.63D-14 2.56D-09 XBig12= 6.02D-02 9.57D-02.
     33 vectors produced by pass  2 Test12= 1.63D-14 2.56D-09 XBig12= 5.20D-04 3.74D-03.
     33 vectors produced by pass  3 Test12= 1.63D-14 2.56D-09 XBig12= 3.31D-06 2.28D-04.
     33 vectors produced by pass  4 Test12= 1.63D-14 2.56D-09 XBig12= 6.92D-09 1.48D-05.
     24 vectors produced by pass  5 Test12= 1.63D-14 2.56D-09 XBig12= 7.10D-12 2.48D-07.
      5 vectors produced by pass  6 Test12= 1.63D-14 2.56D-09 XBig12= 4.71D-15 6.88D-09.
 InvSVY:  IOpt=1 It=  1 EMax= 1.11D-15
 Solved reduced A of dimension   194 with    33 vectors.
 End of Minotr F.D. properties file   721 does not exist.
 End of Minotr F.D. properties file   722 does not exist.
 End of Minotr F.D. properties file   788 does not exist.
 Leave Link 1002 at Sat Aug 28 00:51:13 2021, MaxMem= 17179869184 cpu:       902.1
 (Enter /public3/home/sc51754/softwares/g09e01/l601.exe)
 Copying SCF densities to generalized density rwf, IOpCl= 0 IROHF=0.

 **********************************************************************

            Population analysis using the SCF density.

 **********************************************************************

 Orbital symmetries:
       Occupied  (A') (A') (A') (A') (A') (A') (A') (A') (A') (A')
                 (A') (A') (A') (A') (A') (A') (A") (A') (A') (A')
                 (A") (A') (A") (A') (A")
       Virtual   (A") (A") (A') (A') (A') (A') (A') (A") (A') (A')
                 (A') (A") (A') (A') (A") (A') (A") (A') (A') (A")
                 (A') (A') (A") (A') (A') (A') (A') (A') (A') (A')
                 (A') (A") (A') (A") (A') (A') (A') (A') (A') (A')
                 (A') (A') (A") (A') (A') (A') (A") (A') (A") (A")
                 (A') (A') (A') (A") (A") (A') (A") (A') (A') (A')
                 (A') (A") (A') (A') (A") (A') (A') (A') (A") (A')
                 (A") (A") (A") (A') (A") (A') (A") (A') (A') (A')
                 (A") (A") (A') (A') (A") (A') (A") (A') (A') (A")
                 (A') (A") (A') (A') (A') (A') (A') (A") (A') (A')
                 (A') (A') (A") (A') (A') (A') (A") (A') (A') (A')
                 (A") (A') (A') (A') (A') (A') (A") (A') (A') (A')
                 (A') (A") (A') (A") (A') (A") (A') (A") (A") (A')
                 (A") (A") (A") (A') (A') (A') (A') (A") (A') (A')
                 (A') (A') (A') (A') (A") (A") (A') (A") (A') (A')
                 (A') (A') (A") (A') (A") (A") (A") (A') (A') (A")
                 (A") (A') (A") (A') (A') (A") (A') (A") (A') (A')
                 (A") (A') (A") (A') (A") (A') (A') (A") (A") (A")
                 (A') (A") (A') (A') (A") (A") (A") (A') (A") (A")
                 (A') (A") (A') (A') (A') (A') (A") (A") (A') (A")
                 (A') (A") (A') (A") (A') (A') (A') (A") (A') (A')
                 (A') (A") (A') (A") (A') (A') (A") (A") (A') (A')
                 (A') (A") (A') (A') (A") (A') (A") (A') (A') (A')
                 (A') (A") (A') (A') (A') (A') (A') (A') (A") (A')
                 (A') (A') (A") (A') (A') (A') (A') (A') (A') (A')
                 (A') (A') (A') (A') (A')
 The electronic state is 1-A'.
 Alpha  occ. eigenvalues --  -18.88785 -14.14212 -10.08633 -10.05334 -10.02256
 Alpha  occ. eigenvalues --  -10.01014 -10.00560  -0.97448  -0.88506  -0.76859
 Alpha  occ. eigenvalues --   -0.70761  -0.62269  -0.57884  -0.50324  -0.47129
 Alpha  occ. eigenvalues --   -0.43617  -0.40715  -0.40017  -0.39293  -0.34867
 Alpha  occ. eigenvalues --   -0.30968  -0.30195  -0.28376  -0.28217  -0.21211
 Alpha virt. eigenvalues --   -0.07817  -0.04186  -0.01215   0.01054   0.02963
 Alpha virt. eigenvalues --    0.04542   0.06834   0.08552   0.10368   0.12917
 Alpha virt. eigenvalues --    0.13980   0.14149   0.15767   0.16137   0.18105
 Alpha virt. eigenvalues --    0.18564   0.19262   0.22142   0.22986   0.25326
 Alpha virt. eigenvalues --    0.25401   0.26696   0.27149   0.27699   0.28616
 Alpha virt. eigenvalues --    0.30426   0.31480   0.33595   0.34260   0.37036
 Alpha virt. eigenvalues --    0.40376   0.40700   0.41573   0.42324   0.42985
 Alpha virt. eigenvalues --    0.46691   0.49303   0.49911   0.53214   0.56027
 Alpha virt. eigenvalues --    0.57205   0.59175   0.61165   0.61583   0.63162
 Alpha virt. eigenvalues --    0.65446   0.66394   0.70999   0.73219   0.76256
 Alpha virt. eigenvalues --    0.77915   0.85641   0.86866   0.87222   0.90255
 Alpha virt. eigenvalues --    0.92228   0.92669   0.93888   0.95599   0.97464
 Alpha virt. eigenvalues --    1.01324   1.04968   1.06055   1.07720   1.10437
 Alpha virt. eigenvalues --    1.12473   1.12582   1.14993   1.17073   1.19352
 Alpha virt. eigenvalues --    1.19572   1.21704   1.23485   1.24859   1.26072
 Alpha virt. eigenvalues --    1.31880   1.37312   1.37345   1.38969   1.45536
 Alpha virt. eigenvalues --    1.45938   1.47624   1.48306   1.51441   1.52978
 Alpha virt. eigenvalues --    1.53983   1.56536   1.59426   1.61628   1.63352
 Alpha virt. eigenvalues --    1.63722   1.66522   1.66969   1.72546   1.74034
 Alpha virt. eigenvalues --    1.74762   1.79172   1.81241   1.82799   1.83374
 Alpha virt. eigenvalues --    1.87710   1.88950   1.92819   1.95104   1.97348
 Alpha virt. eigenvalues --    2.05229   2.05967   2.11269   2.13314   2.15550
 Alpha virt. eigenvalues --    2.16846   2.18995   2.22504   2.23539   2.26210
 Alpha virt. eigenvalues --    2.30052   2.35019   2.40870   2.59533   2.65062
 Alpha virt. eigenvalues --    2.80238   2.82212   2.88883   2.91773   2.98809
 Alpha virt. eigenvalues --    3.09776   3.14700   3.16660   3.23229   3.24354
 Alpha virt. eigenvalues --    3.25911   3.27191   3.32817   3.33158   3.37646
 Alpha virt. eigenvalues --    3.40245   3.41523   3.44075   3.46043   3.53602
 Alpha virt. eigenvalues --    3.55572   3.57339   3.60186   3.63303   3.63585
 Alpha virt. eigenvalues --    3.68814   3.72146   3.74599   3.76746   3.82953
 Alpha virt. eigenvalues --    3.88353   3.89710   3.90777   3.92620   3.93387
 Alpha virt. eigenvalues --    3.95472   4.02886   4.03260   4.05645   4.06851
 Alpha virt. eigenvalues --    4.08121   4.09986   4.13356   4.15821   4.15906
 Alpha virt. eigenvalues --    4.17306   4.18210   4.18876   4.20927   4.22977
 Alpha virt. eigenvalues --    4.25830   4.26189   4.28189   4.29996   4.30044
 Alpha virt. eigenvalues --    4.32012   4.34378   4.36837   4.38844   4.39581
 Alpha virt. eigenvalues --    4.43733   4.44547   4.46747   4.47430   4.47458
 Alpha virt. eigenvalues --    4.49573   4.53422   4.53465   4.57289   4.60334
 Alpha virt. eigenvalues --    4.61537   4.65383   4.67626   4.69350   4.72731
 Alpha virt. eigenvalues --    4.74063   4.74243   4.79972   4.83159   4.84820
 Alpha virt. eigenvalues --    4.89527   4.92236   4.92484   4.98462   5.02308
 Alpha virt. eigenvalues --    5.04034   5.08684   5.14120   5.17561   5.21509
 Alpha virt. eigenvalues --    5.22862   5.24598   5.28315   5.31222   5.31929
 Alpha virt. eigenvalues --    5.35156   5.38729   5.39156   5.40585   5.41260
 Alpha virt. eigenvalues --    5.43667   5.47715   5.49776   5.57729   5.58886
 Alpha virt. eigenvalues --    5.59118   5.64161   5.64968   5.71600   5.76349
 Alpha virt. eigenvalues --    5.81385   5.88008   5.92144   5.95166   6.03798
 Alpha virt. eigenvalues --    6.10915   6.12770   6.16582   6.19503   6.33916
 Alpha virt. eigenvalues --    6.39637   6.46698   6.48700   6.53303   6.61664
 Alpha virt. eigenvalues --    6.78775   7.05712   7.22863   9.46646  11.93183
 Alpha virt. eigenvalues --   12.61589  14.76878  17.56209  18.49878  22.21935
          Condensed to atoms (all electrons):
               1          2          3          4          5          6
     1  O    8.110890  -0.127144   0.361875  -0.061641   0.002112   0.006308
     2  N   -0.127144   6.690848   0.337194  -0.003484   0.509865  -0.031183
     3  C    0.361875   0.337194   4.526393   0.499578  -0.080269  -0.055076
     4  C   -0.061641  -0.003484   0.499578   4.810287  -0.043284   0.535181
     5  C    0.002112   0.509865  -0.080269  -0.043284   4.581697  -0.073449
     6  C    0.006308  -0.031183  -0.055076   0.535181  -0.073449   4.710989
     7  C   -0.000017  -0.027489  -0.041697  -0.059158   0.551932   0.497931
     8  H    0.195383   0.096956  -0.059112   0.026391  -0.002129  -0.008279
     9  H    0.006249   0.008368  -0.033753   0.428994  -0.002290  -0.032647
    10  H   -0.000759  -0.034864   0.003350  -0.001813   0.421354   0.007153
    11  H   -0.000500  -0.001266   0.007688  -0.028096   0.006697   0.414720
    12  H    0.000069   0.006477  -0.000381   0.005667  -0.025589  -0.030133
               7          8          9         10         11         12
     1  O   -0.000017   0.195383   0.006249  -0.000759  -0.000500   0.000069
     2  N   -0.027489   0.096956   0.008368  -0.034864  -0.001266   0.006477
     3  C   -0.041697  -0.059112  -0.033753   0.003350   0.007688  -0.000381
     4  C   -0.059158   0.026391   0.428994  -0.001813  -0.028096   0.005667
     5  C    0.551932  -0.002129  -0.002290   0.421354   0.006697  -0.025589
     6  C    0.497931  -0.008279  -0.032647   0.007153   0.414720  -0.030133
     7  C    4.878297   0.005429   0.007301  -0.048207  -0.035894   0.422054
     8  H    0.005429   0.525138  -0.001064  -0.004277   0.000315  -0.000224
     9  H    0.007301  -0.001064   0.576658   0.000264  -0.005900  -0.000430
    10  H   -0.048207  -0.004277   0.000264   0.598564  -0.000593  -0.003487
    11  H   -0.035894   0.000315  -0.005900  -0.000593   0.596961  -0.004939
    12  H    0.422054  -0.000224  -0.000430  -0.003487  -0.004939   0.588604
 Mulliken charges:
               1
     1  O   -0.492824
     2  N   -0.424278
     3  C    0.534212
     4  C   -0.108622
     5  C    0.153354
     6  C    0.058486
     7  C   -0.150481
     8  H    0.225474
     9  H    0.048251
    10  H    0.063313
    11  H    0.050806
    12  H    0.042311
 Sum of Mulliken charges =  -0.00000
 Mulliken charges with hydrogens summed into heavy atoms:
               1
     1  O   -0.267350
     2  N   -0.424278
     3  C    0.534212
     4  C   -0.060371
     5  C    0.216667
     6  C    0.109292
     7  C   -0.108171
 APT charges:
               1
     1  O   -0.226726
     2  N   -0.443593
     3  C    0.188135
     4  C   -0.532418
     5  C   -0.345771
     6  C   -0.364649
     7  C   -0.545296
     8  H    0.235178
     9  H    0.450830
    10  H    0.507860
    11  H    0.515995
    12  H    0.560455
 Sum of APT charges =  -0.00000
 APT charges with hydrogens summed into heavy atoms:
               1
     1  O    0.008452
     2  N   -0.443593
     3  C    0.188135
     4  C   -0.081588
     5  C    0.162089
     6  C    0.151345
     7  C    0.015159
 Electronic spatial extent (au):  <R**2>=            627.1618
 Charge=             -0.0000 electrons
 Dipole moment (field-independent basis, Debye):
    X=              0.1704    Y=             -3.3963    Z=              0.0000  Tot=              3.4006
 Quadrupole moment (field-independent basis, Debye-Ang):
   XX=            -35.8017   YY=            -43.8835   ZZ=            -42.9578
   XY=             -0.2983   XZ=             -0.0000   YZ=              0.0000
 Traceless Quadrupole moment (field-independent basis, Debye-Ang):
   XX=              5.0793   YY=             -3.0025   ZZ=             -2.0768
   XY=             -0.2983   XZ=             -0.0000   YZ=              0.0000
 Octapole moment (field-independent basis, Debye-Ang**2):
  XXX=              2.9984  YYY=            -22.4302  ZZZ=              0.0000  XYY=             -2.9549
  XXY=             -0.2183  XXZ=              0.0000  XZZ=             -1.3260  YZZ=              4.3821
  YYZ=              0.0000  XYZ=             -0.0000
 Hexadecapole moment (field-independent basis, Debye-Ang**3):
 XXXX=           -263.0572 YYYY=           -521.5896 ZZZZ=            -45.9194 XXXY=             10.4721
 XXXZ=             -0.0000 YYYX=             -0.6491 YYYZ=              0.0000 ZZZX=             -0.0000
 ZZZY=              0.0000 XXYY=           -114.4021 XXZZ=            -59.9021 YYZZ=            -97.3045
 XXYZ=              0.0000 YYXZ=             -0.0000 ZZXY=              1.7841
 N-N= 2.757253789716D+02 E-N=-1.306205660621D+03  KE= 3.221913943089D+02
 Symmetry A'   KE= 3.104893115256D+02
 Symmetry A"   KE= 1.170208278334D+01
  Exact polarizability:   0.000   0.000   0.000   0.000   0.000   0.000
 Approx polarizability: 156.795   9.433 200.225   0.000   0.000  62.073
 No NMR shielding tensors so no spin-rotation constants.
 Leave Link  601 at Sat Aug 28 00:51:15 2021, MaxMem= 17179869184 cpu:        64.0
 (Enter /public3/home/sc51754/softwares/g09e01/l701.exe)
 Compute integral second derivatives.
 ... and contract with generalized density number  0.
 Leave Link  701 at Sat Aug 28 00:51:16 2021, MaxMem= 17179869184 cpu:        88.6
 (Enter /public3/home/sc51754/softwares/g09e01/l702.exe)
 L702 exits ... SP integral derivatives will be done elsewhere.
 Leave Link  702 at Sat Aug 28 00:51:16 2021, MaxMem= 17179869184 cpu:         0.8
 (Enter /public3/home/sc51754/softwares/g09e01/l703.exe)
 Compute integral second derivatives, UseDBF=F ICtDFT=           0.
 Integral derivatives from FoFJK, PRISM(SPDF).
 Calling FoFJK, ICntrl=    100547 FMM=F ISym2X=1 I1Cent= 0 IOpClX= 0 NMat=1 NMatS=1 NMatT=0.
 FoFJK:  IHMeth= 1 ICntrl=  100547 DoSepK=F KAlg= 0 I1Cent=   0 FoldK=F
 IRaf=         0 NMat=   1 IRICut=       1 DoRegI=T DoRafI=F ISym2E= 1.
 FoFCou: FMM=F IPFlag=           0 FMFlag=      100000 FMFlg1=         800
         NFxFlg=           0 DoJE=F BraDBF=F KetDBF=F FulRan=T
         wScrn=  0.000000 ICntrl=  100547 IOpCl=  0 I1Cent=           0 NGrid=           0
         NMat0=    1 NMatS0=      1 NMatT0=    0 NMatD0=    1 NMtDS0=    0 NMtDT0=    0
 Petite list used in FoFCou.
 Leave Link  703 at Sat Aug 28 00:51:25 2021, MaxMem= 17179869184 cpu:       525.3
 (Enter /public3/home/sc51754/softwares/g09e01/l716.exe)
 Dipole        = 6.70292159D-02-1.33621278D+00 2.68505406D-32
 Polarizability= 0.00000000D+00 0.00000000D+00 0.00000000D+00
                 0.00000000D+00 0.00000000D+00 0.00000000D+00
 ***** Axes restored to original set *****
 -------------------------------------------------------------------
 Center     Atomic                   Forces (Hartrees/Bohr)
 Number     Number              X              Y              Z
 -------------------------------------------------------------------
      1        8          -0.072591871   -0.061768015   -0.000000000
      2        7           0.011145314    0.016921167   -0.000000000
      3        6           0.067559259    0.034674502    0.000000000
      4        6           0.004246520   -0.019439740    0.000000000
      5        6          -0.015962097   -0.017078876    0.000000000
      6        6           0.007046433    0.007264198    0.000000000
      7        6          -0.007320310    0.004873944   -0.000000000
      8        1           0.008552741    0.033755435   -0.000000000
      9        1          -0.001558396    0.000458621   -0.000000000
     10        1           0.000848661    0.000064978    0.000000000
     11        1          -0.000057226   -0.000892363    0.000000000
     12        1          -0.001909027    0.001166151   -0.000000000
 -------------------------------------------------------------------
 Cartesian Forces:  Max     0.072591871 RMS     0.022114543
 Force constants in Cartesian coordinates: 
                1             2             3             4             5 
      1  0.698459D-01
      2 -0.543230D-03  0.375339D+00
      3  0.000000D+00  0.000000D+00  0.715232D-01
      4 -0.146225D-01 -0.207977D-01  0.000000D+00  0.476968D+00
      5 -0.995068D-01 -0.416789D-01  0.000000D+00  0.119733D+00  0.597487D+00
      6  0.000000D+00  0.000000D+00  0.161481D-01  0.000000D+00  0.000000D+00
      7 -0.835857D-01  0.163165D-01  0.000000D+00 -0.316438D+00 -0.715321D-01
      8 -0.164965D-01 -0.262163D+00  0.000000D+00 -0.994748D-01 -0.189875D+00
      9  0.000000D+00  0.000000D+00 -0.691808D-01  0.000000D+00  0.000000D+00
     10 -0.219778D-02  0.161814D-01  0.000000D+00 -0.533400D-01 -0.255653D-01
     11  0.516439D-01 -0.467519D-01  0.000000D+00  0.751464D-02  0.587276D-01
     12  0.000000D+00  0.000000D+00  0.139065D-01  0.000000D+00  0.000000D+00
     13  0.605074D-02 -0.157315D-02  0.000000D+00 -0.110096D+00 -0.169103D-02
     14  0.218451D-01 -0.122990D-02  0.000000D+00  0.500464D-02 -0.319096D+00
     15  0.000000D+00  0.000000D+00  0.681972D-02  0.000000D+00  0.000000D+00
     16 -0.149774D-01  0.641447D-02  0.000000D+00 -0.129983D-01 -0.396144D-01
     17 -0.959433D-02  0.940906D-02  0.000000D+00 -0.228818D-01 -0.472191D-01
     18  0.000000D+00  0.000000D+00  0.535438D-02  0.000000D+00  0.000000D+00
     19  0.123625D-01 -0.654153D-02  0.000000D+00  0.304226D-01  0.732804D-01
     20 -0.688685D-02 -0.488840D-02  0.000000D+00  0.228284D-01 -0.535784D-01
     21  0.000000D+00  0.000000D+00 -0.215348D-02  0.000000D+00  0.000000D+00
     22  0.229844D-01 -0.925248D-02  0.000000D+00  0.326229D-02  0.397836D-01
     23  0.601152D-01 -0.266651D-01  0.000000D+00  0.136570D-01  0.192699D-01
     24  0.000000D+00  0.000000D+00 -0.391201D-01  0.000000D+00  0.000000D+00
     25  0.268872D-02 -0.451685D-05  0.000000D+00 -0.416091D-02  0.411535D-02
     26 -0.104589D-02  0.877668D-03  0.000000D+00  0.546789D-02 -0.886973D-03
     27  0.000000D+00  0.000000D+00 -0.196229D-02  0.000000D+00  0.000000D+00
     28 -0.554207D-03  0.225029D-04  0.000000D+00  0.451435D-02 -0.369236D-02
     29 -0.815634D-03 -0.154461D-02  0.000000D+00 -0.336276D-01 -0.223904D-01
     30  0.000000D+00  0.000000D+00  0.679092D-03  0.000000D+00  0.000000D+00
     31 -0.520453D-05  0.523700D-04  0.000000D+00  0.649110D-03 -0.585575D-03
     32  0.195722D-02 -0.935876D-03  0.000000D+00 -0.225831D-03 -0.227968D-03
     33  0.000000D+00  0.000000D+00 -0.115442D-02  0.000000D+00  0.000000D+00
     34  0.201050D-02 -0.274655D-03  0.000000D+00 -0.416157D-02  0.527566D-02
     35 -0.672279D-03  0.232123D-03  0.000000D+00  0.280261D-02 -0.531285D-03
     36  0.000000D+00  0.000000D+00 -0.859923D-03  0.000000D+00  0.000000D+00
                6             7             8             9            10 
      6  0.807682D-01
      7  0.000000D+00  0.734957D+00
      8  0.000000D+00 -0.445424D-01  0.601725D+00
      9 -0.677341D-01  0.000000D+00  0.000000D+00  0.167248D+00
     10  0.000000D+00 -0.266708D+00  0.869852D-01  0.000000D+00  0.699260D+00
     11  0.000000D+00  0.457035D-01 -0.131648D+00  0.000000D+00  0.477848D-01
     12  0.115474D-01  0.000000D+00  0.000000D+00 -0.727517D-01  0.000000D+00
     13  0.000000D+00  0.194276D-01 -0.354331D-01  0.000000D+00 -0.119864D-01
     14  0.000000D+00 -0.948552D-01 -0.342073D-01  0.000000D+00  0.296488D-01
     15 -0.462161D-01  0.000000D+00  0.000000D+00  0.249045D-02  0.000000D+00
     16  0.000000D+00  0.417299D-01  0.283195D-01  0.000000D+00 -0.129303D+00
     17  0.000000D+00  0.657337D-01 -0.369203D-01  0.000000D+00 -0.289181D-01
     18 -0.533570D-02  0.000000D+00  0.000000D+00  0.169286D-02  0.000000D+00
     19  0.000000D+00 -0.632465D-01  0.465549D-02  0.000000D+00  0.261133D-01
     20  0.000000D+00  0.140762D-01  0.803982D-03  0.000000D+00 -0.347929D-01
     21  0.160957D-01  0.000000D+00  0.000000D+00 -0.876300D-02  0.000000D+00
     22  0.000000D+00 -0.520378D-01  0.926298D-01  0.000000D+00  0.183423D-02
     23  0.000000D+00  0.558692D-01  0.501364D-01  0.000000D+00  0.665319D-02
     24 -0.143094D-01  0.000000D+00  0.000000D+00  0.254478D-01  0.000000D+00
     25  0.000000D+00 -0.167100D-01 -0.177962D-01  0.000000D+00 -0.263633D+00
     26  0.000000D+00  0.136188D-01  0.108074D-01  0.000000D+00 -0.124240D+00
     27  0.514330D-02  0.000000D+00  0.000000D+00  0.155686D-02  0.000000D+00
     28  0.000000D+00  0.298370D-02  0.126209D-02  0.000000D+00  0.364380D-03
     29  0.000000D+00  0.190169D-02 -0.371141D-02  0.000000D+00 -0.839431D-04
     30 -0.143371D-02  0.000000D+00  0.000000D+00  0.924650D-02  0.000000D+00
     31  0.000000D+00  0.174844D-02 -0.114281D-02  0.000000D+00  0.449195D-02
     32  0.000000D+00 -0.219114D-02 -0.524132D-02  0.000000D+00  0.288912D-01
     33 -0.209728D-02  0.000000D+00  0.000000D+00  0.111067D-01  0.000000D+00
     34  0.000000D+00 -0.212055D-02  0.103374D-02  0.000000D+00 -0.489585D-02
     35  0.000000D+00 -0.986669D-04  0.292794D-03  0.000000D+00 -0.254447D-02
     36  0.742377D-02  0.000000D+00  0.000000D+00 -0.359586D-03  0.000000D+00
               11            12            13            14            15 
     11  0.692492D+00
     12  0.000000D+00  0.114349D+00
     13  0.204445D-01  0.000000D+00  0.720505D+00
     14 -0.419623D-01  0.000000D+00  0.347364D-01  0.645202D+00
     15  0.000000D+00 -0.193759D-02  0.000000D+00  0.000000D+00  0.134885D+00
     16  0.205341D-01  0.000000D+00 -0.599007D-01  0.275577D-01  0.000000D+00
     17 -0.348937D+00  0.000000D+00 -0.147695D-01  0.590656D-01  0.000000D+00
     18  0.000000D+00 -0.557071D-01  0.000000D+00  0.000000D+00  0.609547D-02
     19 -0.626110D-01  0.000000D+00 -0.270417D+00  0.593166D-01  0.000000D+00
     20 -0.239782D-01  0.000000D+00  0.116750D+00 -0.174069D+00  0.000000D+00
     21  0.000000D+00  0.699535D-02  0.000000D+00  0.000000D+00 -0.610161D-01
     22 -0.550955D-02  0.000000D+00 -0.138856D-01 -0.886723D-02  0.000000D+00
     23 -0.181223D-01  0.000000D+00 -0.154451D-01 -0.207971D-01  0.000000D+00
     24  0.000000D+00  0.588336D-02  0.000000D+00  0.000000D+00 -0.598958D-02
     25 -0.122631D+00  0.000000D+00  0.164697D-03  0.215397D-02  0.000000D+00
     26 -0.129156D+00  0.000000D+00  0.270958D-03 -0.139784D-02  0.000000D+00
     27  0.000000D+00 -0.323103D-01  0.000000D+00  0.000000D+00 -0.395736D-03
     28  0.783305D-03  0.000000D+00 -0.281461D+00 -0.989977D-01  0.000000D+00
     29 -0.443274D-03  0.000000D+00 -0.953374D-01 -0.985756D-01  0.000000D+00
     30  0.000000D+00 -0.738606D-03  0.000000D+00  0.000000D+00 -0.396328D-01
     31 -0.179659D-02  0.000000D+00 -0.414145D-02 -0.409397D-02  0.000000D+00
     32 -0.109536D-01  0.000000D+00 -0.352558D-02 -0.108378D-02  0.000000D+00
     33  0.000000D+00  0.553789D-02  0.000000D+00  0.000000D+00  0.653423D-02
     34 -0.186047D-02  0.000000D+00  0.574072D-02  0.265507D-01  0.000000D+00
     35  0.732424D-03  0.000000D+00 -0.442750D-02 -0.118482D-01  0.000000D+00
     36  0.000000D+00  0.522618D-02  0.000000D+00  0.000000D+00 -0.163676D-02
               16            17            18            19            20 
     16  0.697409D+00
     17 -0.378841D-01  0.671033D+00
     18  0.000000D+00  0.000000D+00  0.136565D+00
     19 -0.273131D+00 -0.527868D-01  0.000000D+00  0.629297D+00
     20 -0.109892D+00 -0.164110D+00  0.000000D+00  0.640031D-02  0.729697D+00
     21  0.000000D+00  0.000000D+00 -0.569030D-01  0.000000D+00  0.000000D+00
     22  0.276938D-02  0.454130D-02  0.000000D+00 -0.309190D-02  0.215435D-02
     23  0.827575D-02  0.996821D-02  0.000000D+00 -0.108898D-01  0.570103D-02
     24  0.000000D+00  0.000000D+00 -0.707625D-03  0.000000D+00  0.000000D+00
     25  0.505845D-02  0.225766D-02  0.000000D+00  0.206720D-02  0.870613D-03
     26 -0.278120D-01 -0.103945D-01  0.000000D+00  0.185047D-02 -0.532823D-02
     27  0.000000D+00  0.000000D+00  0.185560D-02  0.000000D+00  0.000000D+00
     28 -0.319325D-02  0.424639D-02  0.000000D+00 -0.165646D-01 -0.134581D-01
     29  0.312553D-02 -0.198658D-02  0.000000D+00  0.156489D-01  0.116814D-01
     30  0.000000D+00  0.000000D+00  0.775161D-02  0.000000D+00  0.000000D+00
     31 -0.256757D+00  0.119205D+00  0.000000D+00 -0.172469D-01  0.167254D-01
     32  0.119102D+00 -0.130628D+00  0.000000D+00 -0.139147D-01  0.119158D-01
     33  0.000000D+00  0.000000D+00 -0.412642D-01  0.000000D+00  0.000000D+00
     34  0.329379D-02 -0.291491D-01  0.000000D+00 -0.565644D-01 -0.147761D-01
     35  0.187313D-02 -0.928013D-02  0.000000D+00 -0.144084D-01 -0.333846D+00
     36  0.000000D+00  0.000000D+00  0.603031D-03  0.000000D+00  0.000000D+00
               21            22            23            24            25 
     21  0.112007D+00
     22  0.000000D+00  0.402124D-01
     23  0.000000D+00 -0.115363D+00 -0.207621D-01
     24  0.307558D-02  0.000000D+00  0.000000D+00  0.277787D-01
     25  0.000000D+00 -0.123659D-02 -0.169762D-02  0.000000D+00  0.274921D+00
     26  0.000000D+00 -0.600513D-04  0.954642D-03  0.000000D+00  0.133128D+00
     27  0.871540D-02  0.000000D+00  0.000000D+00 -0.337548D-03  0.000000D+00
     28  0.000000D+00  0.600258D-03  0.758295D-03  0.000000D+00 -0.351594D-04
     29  0.000000D+00 -0.594880D-03 -0.835558D-04  0.000000D+00 -0.167507D-03
     30  0.589273D-02  0.000000D+00  0.000000D+00 -0.165185D-02  0.000000D+00
     31  0.000000D+00 -0.719224D-04  0.884696D-05  0.000000D+00  0.706237D-03
     32  0.000000D+00 -0.583533D-04 -0.675734D-03  0.000000D+00 -0.500140D-03
     33  0.425634D-02  0.000000D+00  0.000000D+00 -0.980536D-03  0.000000D+00
     34  0.000000D+00 -0.133924D-02 -0.194250D-02  0.000000D+00  0.169506D-03
     35  0.000000D+00  0.596095D-03  0.107573D-02  0.000000D+00  0.271094D-03
     36 -0.282021D-01  0.000000D+00  0.000000D+00  0.911172D-03  0.000000D+00
               26            27            28            29            30 
     26  0.133603D+00
     27  0.000000D+00  0.232382D-01
     28 -0.641246D-04  0.000000D+00  0.293579D+00
     29  0.116409D-03  0.000000D+00  0.109628D+00  0.115829D+00
     30  0.000000D+00 -0.152666D-02  0.000000D+00  0.000000D+00  0.256075D-01
     31  0.360315D-03  0.000000D+00 -0.102431D-02  0.955324D-03  0.000000D+00
     32  0.129896D-02  0.000000D+00 -0.817429D-03  0.526966D-03  0.000000D+00
     33  0.000000D+00 -0.453855D-02  0.000000D+00  0.000000D+00 -0.429345D-03
     34 -0.147473D-02  0.000000D+00  0.791246D-03 -0.632753D-03  0.000000D+00
     35 -0.494725D-03  0.000000D+00  0.328820D-03  0.581177D-03  0.000000D+00
     36  0.000000D+00  0.561708D-03  0.000000D+00  0.000000D+00 -0.376446D-02
               31            32            33            34            35 
     31  0.270539D+00
     32 -0.129487D+00  0.135276D+00
     33  0.000000D+00  0.000000D+00  0.260247D-01
     34  0.111268D-02  0.769939D-03  0.000000D+00  0.559632D-01
     35 -0.200602D-03  0.729392D-03  0.000000D+00  0.164802D-01  0.352357D+00
     36  0.000000D+00  0.000000D+00 -0.299555D-02  0.000000D+00  0.000000D+00
               36 
     36  0.230925D-01
 FormGI is forming the generalized inverse of G from B-inverse, IUseBI=4.
 Leave Link  716 at Sat Aug 28 00:51:25 2021, MaxMem= 17179869184 cpu:        11.0
 (Enter /public3/home/sc51754/softwares/g09e01/l103.exe)

 GradGradGradGradGradGradGradGradGradGradGradGradGradGradGradGradGradGrad
 Berny optimization.
 Red2BG is reusing G-inverse.
 Internal  Forces:  Max     0.043672279 RMS     0.012318827
 Search for a saddle point.
 Step number   1 out of a maximum of  100
 All quantities printed in internal units (Hartrees-Bohrs-Radians)
 Second derivative matrix not updated -- analytic derivatives used.
 ITU=  0
 LST/QST climbing along tangent vector
     Eigenvalues ---   -0.05769   0.00107   0.00656   0.01516   0.01678
     Eigenvalues ---    0.01972   0.02216   0.02647   0.02922   0.04258
     Eigenvalues ---    0.08005   0.10001   0.10358   0.11870   0.12814
     Eigenvalues ---    0.13669   0.19044   0.19408   0.23608   0.28280
     Eigenvalues ---    0.30375   0.34392   0.34963   0.35415   0.35600
     Eigenvalues ---    0.39217   0.40694   0.44488   0.46603   0.51579
     Eigenvalues --- 1000.000001000.000001000.000001000.000001000.00000
     Eigenvalues --- 1000.000001000.000001000.000001000.000001000.00000
     Eigenvalues --- 1000.000001000.000001000.000001000.000001000.00000
     Eigenvalues --- 1000.000001000.000001000.000001000.000001000.00000
     Eigenvalues --- 1000.000001000.000001000.000001000.000001000.00000
     Eigenvalues --- 1000.000001000.000001000.00000
 Eigenvectors required to have negative eigenvalues:
                          R2        R5        A4        A3        D22
   1                    0.66907  -0.52065  -0.22381   0.18375   0.17108
                          D8        D21       D10       D9        D19
   1                   -0.15650   0.15607  -0.13936   0.13067  -0.12802
 QST in optimization variable space.
                        Tangent   TS vect  // Eig F  Eigenval
   1         R1        -0.04528  -0.04528  -0.01898  -0.05769
   2         R2         0.66907   0.66907  -0.00025   0.00107
   3         R3         0.02471   0.02471   0.00351   0.00656
   4         R4         0.00824   0.00824  -0.00045   0.01516
   5         R5        -0.52065  -0.52065   0.00060   0.01678
   6         R6         0.02142   0.02142  -0.00009   0.01972
   7         R7        -0.00839  -0.00839   0.00035   0.02216
   8         R8        -0.00004  -0.00004   0.00005   0.02647
   9         R9        -0.01129  -0.01129   0.00028   0.02922
  10         R10       -0.00146  -0.00146   0.00030   0.04258
  11         R11        0.01143   0.01143  -0.01217   0.08005
  12         R12        0.00046   0.00046  -0.00728   0.10001
  13         R13       -0.00099  -0.00099   0.00808   0.10358
  14         A1        -0.11889  -0.11889  -0.00113   0.11870
  15         A2         0.04006   0.04006   0.00126   0.12814
  16         A3         0.18375   0.18375  -0.02701   0.13669
  17         A4        -0.22381  -0.22381  -0.00504   0.19044
  18         A5         0.01129   0.01129  -0.00868   0.19408
  19         A6         0.03913   0.03913  -0.01986   0.23608
  20         A7        -0.05042  -0.05042  -0.02194   0.28280
  21         A8         0.01839   0.01839  -0.00857   0.30375
  22         A9        -0.01653  -0.01653  -0.00125   0.34392
  23         A10       -0.00186  -0.00186   0.00003   0.34963
  24         A11       -0.01542  -0.01542  -0.00112   0.35415
  25         A12        0.00329   0.00329   0.00002   0.35600
  26         A13        0.01214   0.01214  -0.00291   0.39217
  27         A14        0.00802   0.00802  -0.00162   0.40694
  28         A15       -0.00167  -0.00167  -0.00191   0.44488
  29         A16       -0.00635  -0.00635  -0.00348   0.46603
  30         A17       -0.00064  -0.00064   0.00428   0.51579
  31         A18       -0.00085  -0.00085   0.000001000.00000
  32         A19        0.00148   0.00148   0.000001000.00000
  33         D1         0.01972   0.01972   0.000001000.00000
  34         D2         0.02954   0.02954   0.000001000.00000
  35         D3        -0.01786  -0.01786  -0.000001000.00000
  36         D4        -0.02827  -0.02827  -0.000001000.00000
  37         D5        -0.01936  -0.01936  -0.000001000.00000
  38         D6        -0.02977  -0.02977   0.000001000.00000
  39         D7         0.11353   0.11353  -0.000001000.00000
  40         D8        -0.15650  -0.15650  -0.000001000.00000
  41         D9         0.13067   0.13067   0.000001000.00000
  42         D10       -0.13936  -0.13936  -0.000001000.00000
  43         D11       -0.04779  -0.04779  -0.000001000.00000
  44         D12       -0.01072  -0.01072   0.000001000.00000
  45         D13       -0.03720  -0.03720   0.000001000.00000
  46         D14       -0.00013  -0.00013  -0.000001000.00000
  47         D15        0.02123   0.02123  -0.000001000.00000
[...]
    A2        2.15269   0.00001   0.00000   0.00010   0.00010   2.15278
    A3        1.31153   0.00001   0.00000   0.00018   0.00018   1.31171
    A4        2.81897  -0.00001   0.00000  -0.00027  -0.00027   2.81869
    A5        1.83978  -0.00001   0.00000   0.00004   0.00004   1.83982
    A6        2.34731  -0.00000   0.00000  -0.00001  -0.00001   2.34729
    A7        2.09610   0.00001   0.00000  -0.00003  -0.00003   2.09607
    A8        2.03531  -0.00002   0.00000  -0.00005  -0.00005   2.03527
    A9        2.11079   0.00001   0.00000   0.00004   0.00004   2.11084
   A10        2.13708   0.00001   0.00000   0.00000   0.00000   2.13708
   A11        2.07897  -0.00001   0.00000  -0.00009  -0.00009   2.07888
   A12        2.05089   0.00001   0.00000   0.00007   0.00007   2.05097
   A13        2.15332   0.00000   0.00000   0.00002   0.00002   2.15334
   A14        2.13148   0.00000   0.00000   0.00003   0.00003   2.13151
   A15        2.07690  -0.00000   0.00000  -0.00001  -0.00001   2.07689
   A16        2.07480  -0.00000   0.00000  -0.00002  -0.00002   2.07478
   A17        2.07181   0.00001   0.00000   0.00003   0.00003   2.07185
   A18        2.09886  -0.00001   0.00000  -0.00003  -0.00003   2.09883
   A19        2.11251  -0.00000   0.00000  -0.00001  -0.00001   2.11251
    D1       -0.00048   0.00002   0.00000   0.00048   0.00048   0.00000
    D2        3.14119   0.00001   0.00000   0.00040   0.00040  -3.14159
    D3       -3.14130  -0.00002   0.00000  -0.00029  -0.00029  -3.14159
    D4        0.00022  -0.00001   0.00000  -0.00022  -0.00022   0.00000
    D5        0.00051  -0.00002   0.00000  -0.00051  -0.00051  -0.00000
    D6       -3.14115  -0.00001   0.00000  -0.00045  -0.00045   3.14159
    D7        0.00007   0.00000   0.00000  -0.00007  -0.00007  -0.00000
    D8        3.14156   0.00000   0.00000   0.00003   0.00003  -3.14159
    D9        3.14098   0.00001   0.00000   0.00061   0.00061  -3.14159
   D10       -0.00071   0.00001   0.00000   0.00071   0.00071   0.00000
   D11        3.14119   0.00002   0.00000   0.00040   0.00040   3.14159
   D12       -0.00025   0.00001   0.00000   0.00025   0.00025   0.00000
   D13       -0.00031   0.00001   0.00000   0.00031   0.00031  -0.00000
   D14        3.14143  -0.00000   0.00000   0.00016   0.00016  -3.14159
   D15        0.00013  -0.00000   0.00000  -0.00013  -0.00013  -0.00000
   D16       -3.14144  -0.00000   0.00000  -0.00015  -0.00015   3.14159
   D17        3.14157   0.00001   0.00000   0.00002   0.00002   3.14159
   D18        0.00000   0.00000   0.00000  -0.00000  -0.00000  -0.00000
   D19       -0.00025   0.00000   0.00000   0.00025   0.00025   0.00000
   D20        3.14146   0.00000   0.00000   0.00013   0.00013  -3.14159
   D21        3.14145   0.00000   0.00000   0.00014   0.00014   3.14159
   D22       -0.00002   0.00000   0.00000   0.00002   0.00002   0.00000
   D23        0.00015  -0.00000   0.00000  -0.00015  -0.00015   0.00000
   D24       -3.14157  -0.00000   0.00000  -0.00003  -0.00003   3.14159
   D25       -3.14147  -0.00000   0.00000  -0.00012  -0.00012   3.14159
   D26        0.00000   0.00000   0.00000  -0.00000  -0.00000  -0.00000
         Item               Value     Threshold  Converged?
 Maximum Force            0.000065     0.000450     YES
 RMS     Force            0.000013     0.000300     YES
 Maximum Displacement     0.000850     0.001800     YES
 RMS     Displacement     0.000173     0.001200     YES
 Predicted change in Energy=-3.855765D-08
 Optimization completed.
    -- Stationary point found.
                           ----------------------------
                           !   Optimized Parameters   !
                           ! (Angstroms and Degrees)  !
 --------------------------                            --------------------------
 ! Name  Definition              Value          Derivative Info.                !
 --------------------------------------------------------------------------------
 ! R1    R(1,3)                  1.2959         -DE/DX =    0.0                 !
 ! R2    R(1,8)                  1.3791         -DE/DX =    0.0                 !
 ! R3    R(2,3)                  1.3677         -DE/DX =    0.0                 !
 ! R4    R(2,5)                  1.3409         -DE/DX =    0.0                 !
 ! R5    R(2,8)                  1.2988         -DE/DX =    0.0001              !
 ! R6    R(3,4)                  1.4092         -DE/DX =    0.0                 !
 ! R7    R(4,6)                  1.3873         -DE/DX =    0.0                 !
 ! R8    R(4,9)                  1.0825         -DE/DX =    0.0                 !
 ! R9    R(5,7)                  1.3873         -DE/DX =    0.0                 !
 ! R10   R(5,10)                 1.0843         -DE/DX =    0.0                 !
 ! R11   R(6,7)                  1.4087         -DE/DX =    0.0                 !
 ! R12   R(6,11)                 1.0862         -DE/DX =    0.0                 !
 ! R13   R(7,12)                 1.0828         -DE/DX =    0.0                 !
 ! A1    A(3,1,8)               74.8419         -DE/DX =    0.0                 !
 ! A2    A(3,2,5)              123.3399         -DE/DX =    0.0                 !
 ! A3    A(3,2,8)               75.1452         -DE/DX =    0.0                 !
 ! A4    A(5,2,8)              161.515          -DE/DX =    0.0                 !
 ! A5    A(1,3,2)              105.4115         -DE/DX =    0.0                 !
 ! A6    A(1,3,4)              134.4907         -DE/DX =    0.0                 !
 ! A7    A(2,3,4)              120.0978         -DE/DX =    0.0                 !
 ! A8    A(3,4,6)              116.6149         -DE/DX =    0.0                 !
 ! A9    A(3,4,9)              120.9396         -DE/DX =    0.0                 !
 ! A10   A(6,4,9)              122.4455         -DE/DX =    0.0                 !
 ! A11   A(2,5,7)              119.1163         -DE/DX =    0.0                 !
 ! A12   A(2,5,10)             117.5076         -DE/DX =    0.0                 !
 ! A13   A(7,5,10)             123.3761         -DE/DX =    0.0                 !
 ! A14   A(4,6,7)              122.1248         -DE/DX =    0.0                 !
 ! A15   A(4,6,11)             118.9976         -DE/DX =    0.0                 !
 ! A16   A(7,6,11)             118.8775         -DE/DX =    0.0                 !
 ! A17   A(5,7,6)              118.7062         -DE/DX =    0.0                 !
 ! A18   A(5,7,12)             120.2558         -DE/DX =    0.0                 !
 ! A19   A(6,7,12)             121.038          -DE/DX =    0.0                 !
 ! D1    D(8,1,3,2)             -0.0277         -DE/DX =    0.0                 !
 ! D2    D(8,1,3,4)           -180.023          -DE/DX =    0.0                 !
 ! D3    D(5,2,3,1)           -179.9834         -DE/DX =    0.0                 !
 ! D4    D(5,2,3,4)              0.0127         -DE/DX =    0.0                 !
 ! D5    D(8,2,3,1)              0.0293         -DE/DX =    0.0                 !
 ! D6    D(8,2,3,4)            180.0255         -DE/DX =    0.0                 !
 ! D7    D(3,2,5,7)              0.0039         -DE/DX =    0.0                 !
 ! D8    D(3,2,5,10)          -180.002          -DE/DX =    0.0                 !
 ! D9    D(8,2,5,7)           -180.0349         -DE/DX =    0.0                 !
 ! D10   D(8,2,5,10)            -0.0409         -DE/DX =    0.0                 !
 ! D11   D(1,3,4,6)            179.9769         -DE/DX =    0.0                 !
 ! D12   D(1,3,4,9)             -0.0146         -DE/DX =    0.0                 !
 ! D13   D(2,3,4,6)             -0.0179         -DE/DX =    0.0                 !
 ! D14   D(2,3,4,9)           -180.0094         -DE/DX =    0.0                 !
 ! D15   D(3,4,6,7)              0.0075         -DE/DX =    0.0                 !
 ! D16   D(3,4,6,11)           180.0088         -DE/DX =    0.0                 !
 ! D17   D(9,4,6,7)            179.9989         -DE/DX =    0.0                 !
 ! D18   D(9,4,6,11)             0.0002         -DE/DX =    0.0                 !
 ! D19   D(2,5,7,6)             -0.0142         -DE/DX =    0.0                 !
 ! D20   D(2,5,7,12)          -180.0074         -DE/DX =    0.0                 !
 ! D21   D(10,5,7,6)           179.992          -DE/DX =    0.0                 !
 ! D22   D(10,5,7,12)           -0.0011         -DE/DX =    0.0                 !
 ! D23   D(4,6,7,5)              0.0084         -DE/DX =    0.0                 !
 ! D24   D(4,6,7,12)           180.0014         -DE/DX =    0.0                 !
 ! D25   D(11,6,7,5)           180.0072         -DE/DX =    0.0                 !
 ! D26   D(11,6,7,12)            0.0002         -DE/DX =    0.0                 !
 --------------------------------------------------------------------------------
 GradGradGradGradGradGradGradGradGradGradGradGradGradGradGradGradGradGrad

 Leave Link  103 at Sat Aug 28 00:56:09 2021, MaxMem= 17179869184 cpu:        46.7
 (Enter /public3/home/sc51754/softwares/g09e01/l9999.exe)
 1\1\GINC-O1602\Freq\RTPSSTPSS\Gen\C5H5N1O1\SC51754\28-Aug-2021\0\\#P G
 eom=AllCheck Guess=TCheck SCRF=Check GenChk RTPSSTPSS/ChkBas Freq\\HY_
 TPSSTPSS_PC2_OPT_FREQ\\0,1\O,-0.0146994555,2.6327235313,0.0021015295\N
 ,-0.9174485678,0.7151679432,0.0005859252\C,0.2825551797,1.3713975317,0
 .000891517\C,1.4875149628,0.640789272,0.0000252026\C,-1.0265592619,-0.
 6212398565,-0.0002705945\C,1.3758966552,-0.7419867637,-0.0007321235\C,
 0.1264841396,-1.3926644122,-0.0008037837\H,-1.2276380984,1.9763716134,
 0.0011562508\H,2.4448115187,1.1461673026,0.0001010378\H,-2.0258816917,
 -1.0421381693,-0.0004103701\H,2.2804598361,-1.3432626628,-0.0012674779
 \H,0.0598541832,-2.4733713296,-0.0013771131\\Version=EM64L-G09RevE.01\
 State=1-A\HF=-323.6508199\RMSD=3.276e-09\RMSF=2.528e-05\ZeroPoint=0.08
 68478\Thermal=0.091954\Dipole=-0.0078671,-1.3382978,-0.0012473\DipoleD
 eriv=-0.4572902,-0.0122158,-0.0000193,0.1803812,-1.5406585,-0.0009512,
 0.000126,-0.0011849,-0.3539877,-0.3149408,-0.3778238,-0.0002874,0.1300
 99,-0.9124313,-0.0006372,0.0002571,-0.0005555,-0.1892031,0.1702985,-0.
 3720846,-0.0002498,-0.2410413,1.5420472,0.0011905,-0.0002471,0.0013711
 ,0.1804503,0.0031223,0.4707251,0.0002705,-0.0658048,-0.5415789,-0.0002
 85,-0.0000416,-0.000376,-0.156833,0.465697,0.1307525,0.0000446,-0.4475
 267,0.4023431,0.0003348,-0.0004156,0.0002573,0.0165324,0.3451979,0.120
 6309,-0.0000073,0.1836944,0.4452831,0.0002822,0.0000121,0.0002981,-0.0
 725393,-0.5391816,-0.1468812,-0.0000283,0.065849,-0.1430928,-0.0000396
 ,0.0000836,0.0000925,-0.1834929,0.3510239,0.2141844,0.0001849,0.219807
 ,0.7074837,0.0003997,0.0001166,0.0004269,0.2098547,-0.0192698,-0.04061
 55,0.0000178,-0.0452159,0.0400498,-0.0000533,0.0000009,-0.0001063,0.14
 98587,-0.0339843,-0.0629035,-0.0000264,-0.0397251,0.0482794,-0.0000452
 ,0.0000176,-0.0000108,0.1244469,-0.0361193,0.0800045,0.0000834,0.08010
 24,0.0282642,-0.0000718,0.0000812,-0.0000616,0.1198959,0.0654466,-0.00
 37729,0.0000173,-0.0206193,-0.0759889,-0.000124,0.0000092,-0.0001509,0
 .155017\Polar=76.3800914,-0.1441096,91.730706,-0.0066983,0.0358476,37.
 7327062\PG=C01 [X(C5H5N1O1)]\NImag=1\\0.08050729,-0.01629971,0.5670133
 5,-0.00004732,0.00046090,0.04945451,-0.01118078,-0.04823084,-0.0000323
 9,0.45417511,-0.13921269,-0.12019935,-0.00012397,0.11496106,0.67056891
 ,-0.00009390,-0.00014306,0.03364396,0.00006018,0.00040150,0.08461617,-
 0.09870250,0.05752935,0.00005417,-0.23922965,-0.02325853,0.00000536,0.
 67093419,0.03095760,-0.39188880,-0.00032017,-0.06834642,-0.17219837,-0
 .00004600,-0.11880958,0.68485550,0.00003041,-0.00029909,-0.06595853,-0
 .00002885,-0.00008059,-0.07247619,-0.00017834,0.00043104,0.17450482,-0
 .00413782,0.01682453,0.00001559,-0.04744935,-0.01811667,0.00000018,-0.
 25383078,0.07774368,0.00011301,0.69398369,0.05457348,-0.02298373,-0.00
 003594,0.01018391,0.05836713,0.00003017,0.04354533,-0.14073045,-0.0000
 7169,0.05915794,0.66622625,0.00004610,-0.00003324,0.01103834,0.0000095
 2,0.00003348,0.00537650,0.00009858,-0.00007147,-0.06734212,-0.00012913
 ,0.00034091,0.11079704,0.01049014,-0.00320955,0.00000454,-0.13638748,-
 0.01982358,-0.00001247,0.02609676,-0.02286261,-0.00002010,-0.00851845,
 0.01896194,0.00001161,0.74521784,0.02153274,0.00068959,-0.00000774,-0.
 01475944,-0.32762901,-0.00017724,-0.08537379,-0.02306885,0.00000552,0.
 02390933,-0.04285690,-0.00002795,0.03479601,0.64027999,0.00001493,-0.0
 0000247,0.00657569,-0.00000152,-0.00016415,-0.04659736,-0.00006281,-0.
 00001054,-0.00093742,0.00001860,-0.00003136,-0.00035361,-0.00003035,0.
 00029184,0.13611426,-0.01837567,0.00059131,0.00000546,-0.01476757,-0.0
 3870924,-0.00002274,0.04188588,0.02949073,0.00001132,-0.12529748,0.006
 15641,0.00001675,-0.05707986,0.03048829,0.00003263,0.66941499,-0.01611
 307,0.00608164,0.00000457,-0.01851770,-0.04504056,-0.00002517,0.065035
 40,-0.03868223,-0.00003596,-0.04408957,-0.34753685,-0.00016418,-0.0106
 7731,0.05606641,0.00003608,-0.03911570,0.67384205,-0.00000409,0.000000
 70,0.00537880,-0.00000925,-0.00001483,-0.00552086,0.00003311,-0.000033
 89,0.00008043,-0.00001111,-0.00016411,-0.05186552,0.00000190,0.0000238
 1,0.00509419,-0.00014510,0.00030700,0.13781606,0.01760647,-0.00209735,
 -0.00000642,0.02982605,0.07299092,0.00004752,-0.06405344,0.00545325,0.
 00001735,0.02165984,-0.06389089,-0.00003813,-0.27618511,0.06501892,0.0
 0004332,-0.25670975,-0.04161380,0.00002917,0.61695958,-0.00691332,-0.0
 0678313,-0.00000408,0.02853586,-0.05945016,-0.00004182,0.01029206,0.00
 103896,0.00000425,-0.03300832,-0.02084228,-0.00000809,0.12098119,-0.17
 554862,-0.00007613,-0.09915896,-0.15739546,-0.00003141,-0.00996322,0.7
 2980703,-0.00000710,0.00000061,-0.00261730,0.00001565,-0.00005862,0.01
 601496,0.00001129,0.00000396,-0.00772923,-0.00001797,-0.00000448,0.006
 93541,0.00008634,-0.00006922,-0.05948855,-0.00000862,-0.00004233,-0.05
 825226,-0.00008923,0.00032861,0.10910558,0.01955665,-0.00570418,0.0000
 0678,-0.02972756,0.04795203,0.00001143,-0.06855131,0.08140431,0.000057
 74,0.00140634,-0.01043483,-0.00000731,-0.00866389,-0.00705806,-0.00000
 169,0.00314702,0.00479299,0.00000260,-0.00301235,0.00098891,0.00000236
 ,0.08810175,0.07245563,-0.03008297,0.00002601,0.02416641,0.01394222,0.
 00001600,0.03472862,0.07611048,0.00005929,0.00794452,-0.02140716,-0.00
 002550,-0.02013654,-0.01885045,-0.00001024,0.00978984,0.01276770,0.000
 00535,-0.01337823,0.00612506,0.00000428,-0.11276631,-0.03932202,0.0000
 6252,0.00001504,-0.03399775,0.00000100,0.00003572,-0.02729004,0.000021
 26,0.00004918,0.01965090,0.00000572,-0.00002003,0.00668126,-0.00001293
 ,-0.00001033,-0.00609688,0.00000602,0.00000740,-0.00061463,-0.00000822
 ,-0.00000003,0.00455235,-0.00007263,-0.00007891,0.03988392,0.00217297,
 0.00069887,0.00000006,-0.00318184,0.00366337,0.00000495,-0.01720005,-0
 .01626020,-0.00000651,-0.27853216,-0.11451022,-0.00000771,-0.00029111,
 0.00216586,0.00000134,0.00331293,0.00115253,0.00000011,0.00251154,0.00
 058114,0.00000234,-0.00172508,-0.00127141,-0.00000142,0.29213639,-0.00
 181545,0.00053207,0.00000184,0.00484191,-0.00113162,-0.00000549,0.0149
 1916,0.01202149,0.00000285,-0.11517222,-0.11559814,-0.00002524,0.00047
 543,-0.00150030,-0.00000092,-0.02861440,-0.00918058,-0.00000006,0.0015
 7105,-0.00495853,-0.00000847,0.00075723,0.00070489,0.00000120,0.124197
 18,0.11805788,-0.00000118,0.00000218,-0.00200752,0.00000659,-0.0000065
 0,0.00612068,0.00001183,0.00001362,0.00120371,-0.00000968,-0.00002861,
 -0.03079513,-0.00000020,-0.00000326,-0.00038645,-0.00001656,-0.0000043
 1,0.00100119,0.00000033,-0.00000731,0.00854384,0.00000153,0.00000061,-
 0.00031856,0.00000911,0.00002952,0.02237990,-0.00066325,-0.00033918,-0
 .00000032,0.00263229,-0.00423766,-0.00000240,0.00301235,0.00138722,0.0
 0000148,0.00019283,0.00054473,0.00000013,-0.29639536,-0.09454675,-0.00
 003000,-0.00261833,0.00406055,0.00000297,-0.01442234,-0.01254816,-0.00
 000493,0.00051334,0.00073336,0.00000011,-0.00005180,-0.00005855,-0.000
 00009,0.30799413,-0.00000100,-0.00221083,-0.00000181,-0.03645133,-0.01
 640460,-0.00000554,0.00346041,-0.00143745,-0.00000706,-0.00024523,-0.0
 0064871,-0.00000016,-0.09055546,-0.09379863,-0.00002260,0.00317209,-0.
 00218737,-0.00000581,0.01544570,0.01215136,0.00000258,-0.00032546,-0.0
 0083864,0.00000062,-0.00021387,0.00018721,0.00000121,0.10545582,0.1040
 9384,-0.00000032,-0.00000135,0.00033837,-0.00002349,-0.00001721,-0.000
 57994,0.00000608,-0.00000689,0.00932475,-0.00000195,0.00000196,-0.0005
 2383,-0.00002657,-0.00001483,-0.03853674,0.00000161,-0.00000654,0.0076
 8371,0.00001299,0.00000347,0.00550826,-0.00000022,0.00000150,-0.002436
 14,-0.00000079,0.00000135,-0.00178975,0.00003325,0.00003617,0.02501179
 ,0.00015850,0.00011170,-0.00000033,0.00056605,-0.00118941,-0.00000107,
 0.00157925,-0.00164386,0.00000088,0.00532991,-0.00270909,-0.00000171,-
 0.00452853,-0.00339093,0.00000062,-0.24535477,0.12425929,0.00011639,-0
 .01762444,0.01730707,0.00001460,-0.00000414,-0.00001859,-0.00000022,0.
 00076279,0.00034633,-0.00000094,-0.00097471,0.00096987,0.00000028,0.25
 896140,0.00200869,-0.00022034,0.00000002,-0.00027858,-0.00006955,0.000
 00057,-0.00185007,-0.00590711,-0.00000851,0.02722082,-0.01282506,-0.00
 001679,-0.00341829,-0.00097376,-0.00000323,0.12403232,-0.14002945,-0.0
 0008148,-0.01329178,0.01147711,0.00000723,-0.00013298,-0.00072710,-0.0
 0000024,-0.00039758,0.00132053,0.00000346,-0.00075911,0.00054573,0.000
 00035,-0.13381124,0.14669856,0.00000078,0.00000040,-0.00106935,0.00000
 011,0.00000223,-0.00082233,-0.00000109,-0.00000888,0.01019717,0.000015
 39,-0.00001391,0.00506531,0.00000129,-0.00000287,0.00612938,0.00011726
 ,-0.00007889,-0.04054503,-0.00000366,-0.00000118,0.00414707,-0.0000004
 5,0.00000068,-0.00105400,-0.00000172,0.00000364,-0.00463633,0.00000003
 ,0.00000005,-0.00044631,-0.00012732,0.00009663,0.02616630,0.00256799,0
 .00012505,0.00000017,-0.00527528,0.00498039,0.00000297,-0.00194070,0.0
 0148588,0.00000159,-0.00480656,-0.00157870,0.00000133,0.00624504,0.027
 21783,0.00001493,0.00244262,-0.02917360,-0.00001670,-0.05655605,-0.017
 09425,-0.00000471,-0.00104077,-0.00224730,-0.00000121,0.00008542,-0.00
 144768,-0.00000073,0.00078084,-0.00071153,-0.00000086,0.00112869,0.000
 67778,-0.00000060,0.05636875,-0.00117289,0.00005250,0.00000036,0.00389
 515,-0.00075504,-0.00000390,-0.00021837,-0.00011318,-0.00000004,-0.002
 16881,0.00083590,-0.00000175,-0.00453124,-0.01280946,-0.00000627,0.001
 87731,-0.00870532,-0.00000527,-0.01624457,-0.33562135,-0.00016416,0.00
 052635,0.00157798,0.00000036,0.00019433,-0.00045491,-0.00000061,0.0003
 0773,0.00054810,0.00000201,-0.00023114,0.00071045,0.00000210,0.0177661
 4,0.35473434,-0.00000082,-0.00000061,-0.00077923,0.00000246,-0.0000070
 6,0.00751443,0.00000056,0.00000003,-0.00051829,0.00000135,-0.00000290,
 0.00498635,-0.00000306,-0.00000775,-0.00151653,0.00000198,0.00000233,-
 0.00025608,-0.00000502,-0.00016627,-0.02672012,-0.00000014,0.00000092,
 0.00103957,0.00000024,-0.00000021,0.00068442,-0.00000021,0.00000236,-0
 .00355417,-0.00000117,0.00000199,-0.00313189,0.00000382,0.00017717,0.0
 2225155\\0.00002515,0.00001204,0.00004599,-0.00002182,0.00008263,0.000
 03690,-0.00001945,0.00001995,-0.00002654,-0.00000055,-0.00002890,-0.00
 001288,0.00000433,0.00000552,-0.00000779,-0.00000338,-0.00000741,-0.00
 000096,0.00000242,-0.00001292,0.00000663,0.00003910,-0.00006247,-0.000
 04600,0.00000466,-0.00001244,-0.00000056,-0.00000813,0.00001807,0.0000
 0240,-0.00000920,-0.00001366,0.00000156,-0.00001314,-0.00000042,0.0000
 0124\\\@


 THEREFORE SHALL EVIL COME UPON THEE...
 THOU SHALT NOT KNOW FROM WHENCE IT RISETH...
 AND MISCHIEF SHALL FALL UPON THEE...
 THOU SHALT NOT BE ABLE TO PUT IT OFF...
 AND DESOLATION SHALL COME UPON THEE SUDDENLY...
 WHICH THOU SHALT NOT KNOW...

                                         ISAIAH 47.11
 Job cpu time:       0 days  0 hours 45 minutes 40.5 seconds.
 File lengths (MBytes):  RWF=     81 Int=      0 D2E=      0 Chk=      7 Scr=      1
 Normal termination of Gaussian 09 at Sat Aug 28 00:56:10 2021.
