 Entering Gaussian System, Link 0=g09
 AtFile(1): pc-2.gbs
            H     0
            S    4   1.00
                  0.754230D+02           0.240650D-02
                  0.113500D+02           0.184870D-01
                  0.259930D+01           0.897420D-01
                  0.735130D+00           0.281110D+00
            S    1   1.00
                  0.231670D+00           0.100000D+01
            S    1   1.00
                  0.741470D-01           0.100000D+01
            P    1   1.00
                  0.160000D+01           0.100000D+01
            P    1   1.00
                  0.450000D+00           0.100000D+01
            D    1   1.00
                  0.125000D+01           0.100000D+01
            ****
            C     0
            S    7   1.00
                  0.785710D+04           0.568250D-03
                  0.117870D+04           0.439150D-02
                  0.268320D+03           0.225040D-01
                  0.759480D+02           0.866530D-01
                  0.245590D+02           0.244050D+00
                  0.862120D+01           0.441480D+00
                  0.312780D+01           0.353320D+00
            S    7   1.00
                  0.117870D+04          -0.594920D-06
                  0.268320D+03          -0.627480D-04
                  0.759480D+02          -0.757730D-03
                  0.245590D+02          -0.733080D-02
                  0.862120D+01          -0.389320D-01
                  0.312780D+01          -0.889080D-01
                  0.822020D+00           0.216890D+00
            S    1   1.00
                  0.330170D+00           0.100000D+01
            S    1   1.00
                  0.114630D+00           0.100000D+01
            P    4   1.00
                  0.337750D+02           0.602940D-02
                  0.767660D+01           0.432280D-01
                  0.223570D+01           0.163010D+00
                  0.764470D+00           0.365040D+00
            P    1   1.00
                  0.262320D+00           0.100000D+01
            P    1   1.00
                  0.846380D-01           0.100000D+01
            D    1   1.00
                  0.140000D+01           0.100000D+01
            D    1   1.00
                  0.450000D+00           0.100000D+01
            F    1   1.00
                  0.950000D+00           0.100000D+01
            ****
            N     0
            S    7   1.00
                  0.111010D+05           0.545700D-03
                  0.166530D+04           0.421810D-02
                  0.379080D+03           0.216450D-01
                  0.107300D+03           0.837760D-01
                  0.347470D+02           0.238810D+00
                  0.122490D+02           0.439940D+00
                  0.447430D+01           0.363640D+00
            S    7   1.00
                  0.166530D+04          -0.150060D-05
                  0.379080D+03          -0.587530D-04
                  0.107300D+03          -0.774530D-03
                  0.347470D+02          -0.721610D-02
                  0.122490D+02          -0.393380D-01
                  0.447430D+01          -0.906110D-01
                  0.124040D+01           0.198820D+00
            S    1   1.00
                  0.487430D+00           0.100000D+01
            S    1   1.00
                  0.164840D+00           0.100000D+01
            P    4   1.00
                  0.479340D+02           0.617060D-02
                  0.109990D+02           0.442600D-01
                  0.324720D+01           0.168250D+00
                  0.111140D+01           0.368480D+00
            P    1   1.00
                  0.379880D+00           0.100000D+01
            P    1   1.00
                  0.120680D+00           0.100000D+01
            D    1   1.00
                  0.180000D+01           0.100000D+01
            D    1   1.00
                  0.550000D+00           0.100000D+01
            F    1   1.00
                  0.102000D+01           0.100000D+01
            ****
            O     0
            S    7   1.00
                  0.147820D+05           0.535190D-03
                  0.221730D+04           0.413750D-02
                  0.504740D+03           0.212450D-01
                  0.142870D+03           0.824530D-01
                  0.463000D+02           0.236710D+00
                  0.163370D+02           0.440390D+00
                  0.598280D+01           0.364650D+00
            S    7   1.00
                  0.221730D+04          -0.192750D-05
                  0.504740D+03          -0.579640D-04
                  0.142870D+03          -0.794940D-03
                  0.463000D+02          -0.731250D-02
                  0.163370D+02          -0.405740D-01
                  0.598280D+01          -0.915940D-01
                  0.167180D+01           0.209400D+00
            S    1   1.00
                  0.646620D+00           0.100000D+01
            S    1   1.00
                  0.216690D+00           0.100000D+01
            P    4   1.00
                  0.604240D+02           0.689490D-02
                  0.139350D+02           0.490050D-01
                  0.415310D+01           0.182550D+00
                  0.141580D+01           0.376330D+00
            P    1   1.00
                  0.475490D+00           0.100000D+01
            P    1   1.00
                  0.145290D+00           0.100000D+01
            D    1   1.00
                  0.220000D+01           0.100000D+01
            D    1   1.00
                  0.650000D+00           0.100000D+01
            F    1   1.00
                  0.110000D+01           0.100000D+01
            ****
 Initial command:
 /public3/home/sc51754/softwares/g09e01/l1.exe "./Gau-48035.inp" -scrdir="./"
 Entering Link 1 = /public3/home/sc51754/softwares/g09e01/l1.exe PID=     48036.
  
 Copyright (c) 1988,1990,1992,1993,1995,1998,2003,2009,2015,
            Gaussian, Inc.  All Rights Reserved.
  
 This is part of the Gaussian(R) 09 program.  It is based on
 the Gaussian(R) 03 system (copyright 2003, Gaussian, Inc.),
 the Gaussian(R) 98 system (copyright 1998, Gaussian, Inc.),
 the Gaussian(R) 94 system (copyright 1995, Gaussian, Inc.),
 the Gaussian 92(TM) system (copyright 1992, Gaussian, Inc.),
 the Gaussian 90(TM) system (copyright 1990, Gaussian, Inc.),
 the Gaussian 88(TM) system (copyright 1988, Gaussian, Inc.),
 the Gaussian 86(TM) system (copyright 1986, Carnegie Mellon
 University), and the Gaussian 82(TM) system (copyright 1983,
 Carnegie Mellon University). Gaussian is a federally registered
 trademark of Gaussian, Inc.
  
 This software contains proprietary and confidential information,
 including trade secrets, belonging to Gaussian, Inc.
  
 This software is provided under written license and may be
 used, copied, transmitted, or stored only in accord with that
 written license.
  
 The following legend is applicable only to US Government
 contracts under FAR:
  
                    RESTRICTED RIGHTS LEGEND
  
 Use, reproduction and disclosure by the US Government is
 subject to restrictions as set forth in subparagraphs (a)
 and (c) of the Commercial Computer Software - Restricted
 Rights clause in FAR 52.227-19.
  
 Gaussian, Inc.
 340 Quinnipiac St., Bldg. 40, Wallingford CT 06492
  
  
 ---------------------------------------------------------------
 Warning -- This program may not be used in any manner that
 competes with the business of Gaussian, Inc. or will provide
 assistance to any competitor of Gaussian, Inc.  The licensee
 of this program is prohibited from giving any competitor of
 Gaussian, Inc. access to this program.  By using this program,
 the user acknowledges that Gaussian, Inc. is engaged in the
 business of creating and licensing software in the field of
 computational chemistry and represents and warrants to the
 licensee that it is not a competitor of Gaussian, Inc. and that
 it will not use this program in any manner prohibited above.
 ---------------------------------------------------------------
  

 Cite this work as:
 Gaussian 09, Revision E.01,
 M. J. Frisch, G. W. Trucks, H. B. Schlegel, G. E. Scuseria, 
 M. A. Robb, J. R. Cheeseman, G. Scalmani, V. Barone, B. Mennucci, 
 G. A. Petersson, H. Nakatsuji, M. Caricato, X. Li, H. P. Hratchian, 
 A. F. Izmaylov, J. Bloino, G. Zheng, J. L. Sonnenberg, M. Hada, 
 M. Ehara, K. Toyota, R. Fukuda, J. Hasegawa, M. Ishida, T. Nakajima, 
 Y. Honda, O. Kitao, H. Nakai, T. Vreven, J. A. Montgomery, Jr., 
 J. E. Peralta, F. Ogliaro, M. Bearpark, J. J. Heyd, E. Brothers, 
 K. N. Kudin, V. N. Staroverov, T. Keith, R. Kobayashi, J. Normand, 
 K. Raghavachari, A. Rendell, J. C. Burant, S. S. Iyengar, J. Tomasi, 
 M. Cossi, N. Rega, J. M. Millam, M. Klene, J. E. Knox, J. B. Cross, 
 V. Bakken, C. Adamo, J. Jaramillo, R. Gomperts, R. E. Stratmann, 
 O. Yazyev, A. J. Austin, R. Cammi, C. Pomelli, J. W. Ochterski, 
 R. L. Martin, K. Morokuma, V. G. Zakrzewski, G. A. Voth, 
 P. Salvador, J. J. Dannenberg, S. Dapprich, A. D. Daniels, 
 O. Farkas, J. B. Foresman, J. V. Ortiz, J. Cioslowski, 
 and D. J. Fox, Gaussian, Inc., Wallingford CT, 2013.
 
 ******************************************
 Gaussian 09:  EM64L-G09RevE.01 30-Nov-2015
                19-Jun-2021 
 ******************************************
 %nprocshared=64
 Will use up to   64 processors via shared memory.
 %mem=128GB
 %chk=2HY_CAM-B3LYP_pc2_optfreq.chk
 ------------------------------
 # opt freq=raman CAM-B3LYP/gen
 ------------------------------
 1/14=-1,18=20,19=15,26=3,38=1/1,3;
 2/9=110,12=2,17=6,18=5,40=1/2;
 3/5=7,11=2,16=1,25=1,30=1,71=1,74=-40/1,2,3;
 4//1;
 5/5=2,38=5/2;
 6/7=2,8=2,9=2,10=2,28=1/1;
 7//1,2,3,16;
 1/14=-1,18=20,19=15,26=3/3(2);
 2/9=110/2;
 99//99;
 2/9=110/2;
 3/5=7,6=1,11=2,16=1,25=1,30=1,71=1,74=-40,82=7/1,2,3;
 4/5=5,16=3,69=1/1;
 5/5=2,38=5/2;
 7//1,2,3,16;
 1/14=-1,18=20,19=15,26=3/3(-5);
 2/9=110/2;
 6/7=2,8=2,9=2,10=2,19=2,28=1/1;
 99/9=1/99;
 -------------------------
 2HY_CAM-B3LYP_pc2_optfreq
 -------------------------
 Symbolic Z-matrix:
 Charge =  0 Multiplicity = 1
 O                     1.95     -0.746     0. 
 N                    -0.398    -1.        0. 
 C                     0.627    -0.202     0. 
 C                     0.428     1.325     0. 
 C                    -1.779    -0.48      0. 
 C                    -0.824     1.828     0. 
 C                    -2.011     0.856     0. 
 H                     1.902    -1.705     0. 
 H                     1.274     1.98      0. 
 H                    -2.604    -1.162     0. 
 H                    -0.986     2.885     0. 
 H                    -3.014     1.229     0. 
 

 GradGradGradGradGradGradGradGradGradGradGradGradGradGradGradGradGradGrad
 Berny optimization.
 Initialization pass.
                           ----------------------------
                           !    Initial Parameters    !
                           ! (Angstroms and Degrees)  !
 --------------------------                            --------------------------
 ! Name  Definition              Value          Derivative Info.                !
 --------------------------------------------------------------------------------
 ! R1    R(1,3)                  1.4305         estimate D2E/DX2                !
 ! R2    R(1,8)                  0.9602         estimate D2E/DX2                !
 ! R3    R(2,3)                  1.299          estimate D2E/DX2                !
 ! R4    R(2,5)                  1.4757         estimate D2E/DX2                !
 ! R5    R(3,4)                  1.5399         estimate D2E/DX2                !
 ! R6    R(4,6)                  1.3493         estimate D2E/DX2                !
 ! R7    R(4,9)                  1.0699         estimate D2E/DX2                !
 ! R8    R(5,7)                  1.356          estimate D2E/DX2                !
 ! R9    R(5,10)                 1.0704         estimate D2E/DX2                !
 ! R10   R(6,7)                  1.5342         estimate D2E/DX2                !
 ! R11   R(6,11)                 1.0693         estimate D2E/DX2                !
 ! R12   R(7,12)                 1.0701         estimate D2E/DX2                !
 ! A1    A(3,1,8)              109.4864         estimate D2E/DX2                !
 ! A2    A(3,2,5)              121.4646         estimate D2E/DX2                !
 ! A3    A(1,3,2)              119.7461         estimate D2E/DX2                !
 ! A4    A(1,3,4)              119.7768         estimate D2E/DX2                !
 ! A5    A(2,3,4)              120.4771         estimate D2E/DX2                !
 ! A6    A(3,4,6)              119.3131         estimate D2E/DX2                !
 ! A7    A(3,4,9)              120.3232         estimate D2E/DX2                !
 ! A8    A(6,4,9)              120.3637         estimate D2E/DX2                !
 ! A9    A(2,5,7)              120.4846         estimate D2E/DX2                !
 ! A10   A(2,5,10)             119.7873         estimate D2E/DX2                !
 ! A11   A(7,5,10)             119.7281         estimate D2E/DX2                !
 ! A12   A(4,6,7)              118.7988         estimate D2E/DX2                !
 ! A13   A(4,6,11)             120.6017         estimate D2E/DX2                !
 ! A14   A(7,6,11)             120.5995         estimate D2E/DX2                !
 ! A15   A(5,7,6)              119.4617         estimate D2E/DX2                !
 ! A16   A(5,7,12)             120.2507         estimate D2E/DX2                !
 ! A17   A(6,7,12)             120.2876         estimate D2E/DX2                !
 ! D1    D(8,1,3,2)              0.0            estimate D2E/DX2                !
 ! D2    D(8,1,3,4)            180.0            estimate D2E/DX2                !
 ! D3    D(5,2,3,1)            180.0            estimate D2E/DX2                !
 ! D4    D(5,2,3,4)              0.0            estimate D2E/DX2                !
 ! D5    D(3,2,5,7)              0.0            estimate D2E/DX2                !
 ! D6    D(3,2,5,10)           180.0            estimate D2E/DX2                !
 ! D7    D(1,3,4,6)            180.0            estimate D2E/DX2                !
 ! D8    D(1,3,4,9)              0.0            estimate D2E/DX2                !
 ! D9    D(2,3,4,6)              0.0            estimate D2E/DX2                !
 ! D10   D(2,3,4,9)            180.0            estimate D2E/DX2                !
 ! D11   D(3,4,6,7)              0.0            estimate D2E/DX2                !
 ! D12   D(3,4,6,11)           180.0            estimate D2E/DX2                !
 ! D13   D(9,4,6,7)            180.0            estimate D2E/DX2                !
 ! D14   D(9,4,6,11)             0.0            estimate D2E/DX2                !
 ! D15   D(2,5,7,6)              0.0            estimate D2E/DX2                !
 ! D16   D(2,5,7,12)           180.0            estimate D2E/DX2                !
 ! D17   D(10,5,7,6)           180.0            estimate D2E/DX2                !
 ! D18   D(10,5,7,12)            0.0            estimate D2E/DX2                !
 ! D19   D(4,6,7,5)              0.0            estimate D2E/DX2                !
 ! D20   D(4,6,7,12)           180.0            estimate D2E/DX2                !
 ! D21   D(11,6,7,5)           180.0            estimate D2E/DX2                !
 ! D22   D(11,6,7,12)            0.0            estimate D2E/DX2                !
 --------------------------------------------------------------------------------
 Trust Radius=3.00D-01 FncErr=1.00D-07 GrdErr=1.00D-06
 Number of steps in this run=     61 maximum allowed number of steps=    100.
 GradGradGradGradGradGradGradGradGradGradGradGradGradGradGradGradGradGrad

                          Input orientation:                          
 ---------------------------------------------------------------------
 Center     Atomic      Atomic             Coordinates (Angstroms)
 Number     Number       Type             X           Y           Z
 ---------------------------------------------------------------------
      1          8           0        1.950000   -0.746000    0.000000
      2          7           0       -0.398000   -1.000000    0.000000
      3          6           0        0.627000   -0.202000    0.000000
      4          6           0        0.428000    1.325000    0.000000
      5          6           0       -1.779000   -0.480000    0.000000
      6          6           0       -0.824000    1.828000    0.000000
      7          6           0       -2.011000    0.856000    0.000000
      8          1           0        1.902000   -1.705000    0.000000
      9          1           0        1.274000    1.980000    0.000000
     10          1           0       -2.604000   -1.162000    0.000000
     11          1           0       -0.986000    2.885000    0.000000
     12          1           0       -3.014000    1.229000    0.000000
 ---------------------------------------------------------------------
                    Distance matrix (angstroms):
                    1          2          3          4          5
     1  O    0.000000
     2  N    2.361699   0.000000
     3  C    1.430477   1.299011   0.000000
     4  C    2.570122   2.467367   1.539912   0.000000
     5  C    3.738475   1.475656   2.422007   2.851118   0.000000
     6  C    3.784251   2.859906   2.495256   1.349264   2.497777
     7  C    4.272695   2.458964   2.842254   2.483683   1.355994
     8  H    0.960200   2.405624   1.970947   3.369507   3.879483
     9  H    2.808568   3.417014   2.275903   1.069926   3.920766
    10  H    4.572961   2.211940   3.370602   3.921504   1.070397
    11  H    4.669503   3.929245   3.483007   2.105468   3.457177
    12  H    5.342464   3.436844   3.912115   3.443338   2.108532
                    6          7          8          9         10
     6  C    0.000000
     7  C    1.534195   0.000000
     8  H    4.462417   4.676568   0.000000
     9  H    2.103499   3.471974   3.738129   0.000000
    10  H    3.479727   2.103324   4.538599   4.991097   0.000000
    11  H    1.069342   2.273206   5.422974   2.434466   4.358455
    12  H    2.270441   1.070111   5.724981   4.353268   2.425898
                   11         12
    11  H    0.000000
    12  H    2.618228   0.000000
 Stoichiometry    C5H5NO
 Framework group  CS[SG(C5H5NO)]
 Deg. of freedom    21
 Full point group                 CS      NOp   2
 Largest Abelian subgroup         CS      NOp   2
 Largest concise Abelian subgroup C1      NOp   1
                         Standard orientation:                         
 ---------------------------------------------------------------------
 Center     Atomic      Atomic             Coordinates (Angstroms)
 Number     Number       Type             X           Y           Z
 ---------------------------------------------------------------------
      1          8           0        0.069381    2.385746    0.000000
      2          7           0       -1.157776    0.367898    0.000000
      3          6           0        0.000000    0.956952    0.000000
      4          6           0        1.297928    0.128270    0.000000
      5          6           0       -1.273517   -1.103212    0.000000
      6          6           0        1.221582   -1.218833    0.000000
      7          6           0       -0.162523   -1.880652    0.000000
      8          1           0       -0.819219    2.749579    0.000000
      9          1           0        2.250219    0.616001    0.000000
     10          1           0       -2.241334   -1.560464    0.000000
     11          1           0        2.109717   -1.814407    0.000000
     12          1           0       -0.250811   -2.947115    0.000000
 ---------------------------------------------------------------------
 Rotational constants (GHZ):      5.4860096      2.5088307      1.7215440
 General basis read from cards:  (5D, 7F)
 There are   223 symmetry adapted cartesian basis functions of A'  symmetry.
 There are    97 symmetry adapted cartesian basis functions of A"  symmetry.
 There are   190 symmetry adapted basis functions of A'  symmetry.
 There are    90 symmetry adapted basis functions of A"  symmetry.
   280 basis functions,   475 primitive gaussians,   320 cartesian basis functions
    25 alpha electrons       25 beta electrons
       nuclear repulsion energy       265.8673490964 Hartrees.
 NAtoms=   12 NActive=   12 NUniq=   12 SFac= 1.00D+00 NAtFMM=   60 NAOKFM=F Big=F
 Integral buffers will be    131072 words long.
 Raffenetti 2 integral format.
 Two-electron integral symmetry is turned on.
 One-electron integrals computed using PRISM.
 NBasis=   280 RedAO= T EigKep=  2.73D-04  NBF=   190    90
 NBsUse=   280 1.00D-06 EigRej= -1.00D+00 NBFU=   190    90
 ExpMin= 7.41D-02 ExpMax= 1.48D+04 ExpMxC= 5.05D+02 IAcc=2 IRadAn=         4 AccDes= 0.00D+00
 Harris functional with IExCor=20419 and IRadAn=       4 diagonalized for initial guess.
 HarFok:  IExCor=20419 AccDes= 0.00D+00 IRadAn=         4 IDoV= 1 UseB2=F ITyADJ=14
 ICtDFT=  3500011 ScaDFX=  1.000000  1.000000  1.000000  1.000000
 FoFCou: FMM=F IPFlag=           0 FMFlag=      100000 FMFlg1=           0
         NFxFlg=           0 DoJE=T BraDBF=F KetDBF=T FulRan=T
         wScrn=  0.000000 ICntrl=     500 IOpCl=  0 I1Cent=   200000004 NGrid=           0
         NMat0=    1 NMatS0=      1 NMatT0=    0 NMatD0=    1 NMtDS0=    0 NMtDT0=    0
 Petite list used in FoFCou.
 Initial guess orbital symmetries:
       Occupied  (A') (A') (A') (A') (A') (A') (A') (A') (A') (A')
                 (A') (A') (A') (A') (A') (A') (A') (A') (A") (A')
                 (A') (A") (A") (A') (A")
       Virtual   (A") (A") (A') (A') (A') (A') (A') (A") (A') (A')
                 (A") (A') (A') (A') (A") (A") (A') (A') (A') (A")
                 (A') (A') (A") (A') (A') (A') (A') (A') (A') (A')
                 (A') (A") (A') (A') (A") (A') (A') (A') (A') (A')
                 (A') (A') (A') (A') (A") (A') (A') (A") (A') (A")
                 (A") (A") (A') (A') (A") (A') (A') (A') (A") (A')
                 (A') (A") (A') (A') (A") (A') (A') (A") (A') (A')
                 (A") (A") (A") (A') (A") (A') (A') (A') (A") (A')
                 (A') (A") (A') (A") (A") (A') (A') (A") (A') (A")
                 (A') (A') (A') (A') (A") (A') (A') (A") (A') (A')
                 (A') (A') (A') (A") (A') (A') (A") (A') (A') (A')
                 (A') (A') (A") (A') (A') (A') (A") (A') (A') (A')
                 (A") (A') (A") (A') (A') (A") (A") (A') (A") (A")
                 (A') (A") (A') (A') (A") (A') (A") (A') (A') (A')
                 (A') (A') (A') (A") (A') (A") (A") (A') (A') (A')
                 (A") (A') (A') (A") (A") (A') (A") (A') (A') (A")
                 (A') (A") (A') (A') (A") (A") (A') (A') (A') (A")
                 (A') (A') (A") (A") (A') (A') (A') (A") (A") (A")
                 (A") (A') (A") (A') (A') (A") (A") (A') (A") (A')
                 (A") (A") (A') (A") (A') (A') (A") (A") (A') (A')
                 (A') (A") (A') (A") (A') (A') (A') (A") (A') (A')
                 (A') (A") (A') (A') (A") (A") (A') (A') (A") (A')
                 (A") (A') (A') (A') (A") (A") (A') (A') (A') (A")
                 (A') (A') (A') (A') (A') (A") (A') (A') (A') (A")
                 (A') (A') (A") (A') (A') (A') (A') (A') (A') (A')
                 (A') (A') (A') (A') (A')
 The electronic state of the initial guess is 1-A'.
 Keep R1 ints in memory in symmetry-blocked form, NReq=2335173138.
 Requested convergence on RMS density matrix=1.00D-08 within 128 cycles.
 Requested convergence on MAX density matrix=1.00D-06.
 Requested convergence on             energy=1.00D-06.
 No special actions if energy rises.
 Integral accuracy reduced to 1.0D-05 until final iterations.
 Initial convergence to 1.0D-05 achieved.  Increase integral accuracy.
 SCF Done:  E(RCAM-B3LYP) =  -323.459411582     A.U. after   14 cycles
            NFock= 14  Conv=0.58D-08     -V/T= 2.0059

 **********************************************************************

            Population analysis using the SCF density.

 **********************************************************************

 Orbital symmetries:
       Occupied  (A') (A') (A') (A') (A') (A') (A') (A') (A') (A')
                 (A') (A') (A') (A') (A') (A') (A') (A") (A') (A')
                 (A') (A") (A") (A') (A")
       Virtual   (A") (A") (A') (A') (A') (A') (A') (A") (A') (A')
                 (A') (A") (A') (A') (A") (A") (A') (A') (A') (A')
                 (A") (A') (A") (A') (A') (A') (A') (A') (A') (A')
                 (A') (A") (A') (A') (A") (A') (A') (A') (A') (A')
                 (A') (A') (A') (A') (A") (A') (A') (A") (A") (A')
                 (A") (A") (A') (A') (A") (A') (A') (A") (A') (A')
                 (A') (A') (A") (A') (A') (A") (A") (A') (A') (A')
                 (A") (A") (A') (A") (A") (A') (A') (A') (A") (A')
                 (A') (A") (A') (A") (A') (A") (A') (A") (A') (A")
                 (A') (A') (A') (A') (A") (A') (A') (A") (A') (A')
                 (A') (A') (A') (A") (A') (A') (A") (A') (A') (A')
                 (A') (A') (A") (A') (A') (A') (A") (A') (A') (A')
                 (A") (A') (A") (A') (A') (A") (A") (A') (A") (A")
                 (A') (A") (A') (A') (A") (A') (A") (A') (A') (A')
                 (A') (A') (A") (A') (A') (A") (A") (A') (A') (A')
                 (A") (A') (A') (A") (A') (A") (A") (A') (A") (A')
                 (A") (A') (A') (A') (A") (A') (A") (A') (A') (A")
                 (A') (A') (A") (A") (A') (A') (A') (A") (A") (A")
                 (A') (A") (A') (A") (A") (A') (A") (A') (A") (A')
                 (A") (A") (A') (A") (A') (A') (A") (A') (A") (A')
                 (A') (A") (A') (A") (A') (A') (A") (A') (A') (A')
                 (A") (A') (A') (A') (A") (A") (A') (A') (A") (A')
                 (A") (A') (A') (A') (A") (A") (A') (A') (A') (A")
                 (A') (A') (A') (A') (A') (A") (A') (A') (A") (A')
                 (A') (A') (A") (A') (A') (A') (A') (A') (A') (A')
                 (A') (A') (A') (A') (A')
 The electronic state is 1-A'.
 Alpha  occ. eigenvalues --  -19.23540 -14.39671 -10.37049 -10.30035 -10.28519
 Alpha  occ. eigenvalues --  -10.27929 -10.27094  -1.13616  -1.00243  -0.88505
 Alpha  occ. eigenvalues --   -0.84356  -0.71561  -0.70129  -0.62042  -0.59104
 Alpha  occ. eigenvalues --   -0.55516  -0.52139  -0.49495  -0.49417  -0.47430
 Alpha  occ. eigenvalues --   -0.43338  -0.41785  -0.34953  -0.33811  -0.31309
 Alpha virt. eigenvalues --    0.00329   0.02322   0.05380   0.06115   0.07242
 Alpha virt. eigenvalues --    0.09175   0.10878   0.16329   0.16516   0.19115
 Alpha virt. eigenvalues --    0.19337   0.19857   0.21381   0.22431   0.23614
 Alpha virt. eigenvalues --    0.24954   0.25538   0.26999   0.28058   0.30659
 Alpha virt. eigenvalues --    0.31178   0.31909   0.33197   0.33884   0.35008
 Alpha virt. eigenvalues --    0.36830   0.38179   0.38891   0.41450   0.42871
 Alpha virt. eigenvalues --    0.44129   0.45824   0.45999   0.49564   0.50566
 Alpha virt. eigenvalues --    0.53997   0.55745   0.56122   0.58264   0.60162
 Alpha virt. eigenvalues --    0.61819   0.65234   0.66704   0.70121   0.70182
 Alpha virt. eigenvalues --    0.72067   0.76283   0.82112   0.83296   0.84164
 Alpha virt. eigenvalues --    0.86268   0.89949   0.93393   0.96450   0.97410
 Alpha virt. eigenvalues --    0.99333   1.03244   1.03716   1.04579   1.07076
 Alpha virt. eigenvalues --    1.07212   1.12993   1.13096   1.14573   1.18970
 Alpha virt. eigenvalues --    1.19299   1.21719   1.21735   1.23708   1.26017
 Alpha virt. eigenvalues --    1.28548   1.31593   1.31632   1.32367   1.33992
 Alpha virt. eigenvalues --    1.37639   1.38421   1.45466   1.47224   1.48353
 Alpha virt. eigenvalues --    1.51293   1.53968   1.57098   1.59093   1.59398
 Alpha virt. eigenvalues --    1.60431   1.63348   1.67317   1.69889   1.71266
 Alpha virt. eigenvalues --    1.72259   1.72829   1.75548   1.78274   1.81606
 Alpha virt. eigenvalues --    1.82033   1.82922   1.88192   1.88740   1.89393
 Alpha virt. eigenvalues --    1.94420   1.97658   2.00012   2.00103   2.02699
 Alpha virt. eigenvalues --    2.07896   2.10568   2.14127   2.16451   2.21540
 Alpha virt. eigenvalues --    2.22600   2.25318   2.26105   2.31184   2.33597
 Alpha virt. eigenvalues --    2.40632   2.41802   2.58269   2.64819   2.71592
 Alpha virt. eigenvalues --    2.91099   2.94526   3.01065   3.01697   3.16240
 Alpha virt. eigenvalues --    3.19821   3.22916   3.24818   3.29747   3.32835
 Alpha virt. eigenvalues --    3.34048   3.34836   3.37005   3.42093   3.42382
 Alpha virt. eigenvalues --    3.47289   3.47490   3.52261   3.54625   3.62001
 Alpha virt. eigenvalues --    3.63770   3.65992   3.67588   3.67777   3.71022
 Alpha virt. eigenvalues --    3.71157   3.78367   3.82113   3.83691   3.86002
 Alpha virt. eigenvalues --    3.86917   3.92223   3.95050   3.97371   4.00522
 Alpha virt. eigenvalues --    4.01128   4.05340   4.08264   4.09397   4.09462
 Alpha virt. eigenvalues --    4.13069   4.13543   4.16332   4.18535   4.20254
 Alpha virt. eigenvalues --    4.21962   4.21971   4.24540   4.28087   4.28155
 Alpha virt. eigenvalues --    4.30175   4.31317   4.31418   4.33203   4.33390
 Alpha virt. eigenvalues --    4.38427   4.40483   4.40524   4.43446   4.43861
 Alpha virt. eigenvalues --    4.47041   4.47144   4.48313   4.48875   4.49787
 Alpha virt. eigenvalues --    4.50234   4.55553   4.57105   4.58156   4.61366
 Alpha virt. eigenvalues --    4.61971   4.63317   4.67063   4.69563   4.70388
 Alpha virt. eigenvalues --    4.76147   4.76702   4.79899   4.80704   4.87359
 Alpha virt. eigenvalues --    4.89516   4.93006   4.96172   4.97610   5.01361
 Alpha virt. eigenvalues --    5.03055   5.07128   5.08115   5.16951   5.18117
 Alpha virt. eigenvalues --    5.21775   5.23440   5.29427   5.30038   5.31745
 Alpha virt. eigenvalues --    5.35643   5.36835   5.42178   5.42997   5.43437
 Alpha virt. eigenvalues --    5.45284   5.48114   5.56003   5.58104   5.63076
 Alpha virt. eigenvalues --    5.64949   5.70913   5.74476   5.80337   5.82376
 Alpha virt. eigenvalues --    5.84411   5.95730   6.03516   6.04513   6.07897
 Alpha virt. eigenvalues --    6.14789   6.19446   6.24091   6.31306   6.32885
 Alpha virt. eigenvalues --    6.39045   6.43977   6.51657   6.53566   6.66113
 Alpha virt. eigenvalues --    6.82830   7.00102   7.36063   9.10473  11.88084
 Alpha virt. eigenvalues --   12.60857  15.14266  16.87877  17.69270  21.32431
          Condensed to atoms (all electrons):
               1          2          3          4          5          6
     1  O    7.871229  -0.093940   0.312076  -0.041227   0.002882   0.003959
     2  N   -0.093940   6.606680   0.581555  -0.037561   0.417674  -0.025984
     3  C    0.312076   0.581555   4.458125   0.415080  -0.063421  -0.055792
     4  C   -0.041227  -0.037561   0.415080   4.872672  -0.031096   0.586891
     5  C    0.002882   0.417674  -0.063421  -0.031096   4.655328  -0.067647
     6  C    0.003959  -0.025984  -0.055792   0.586891  -0.067647   4.773274
     7  C   -0.000308  -0.053072  -0.035772  -0.052315   0.563603   0.407421
     8  H    0.343976   0.011816  -0.026823   0.009608  -0.000001  -0.001224
     9  H    0.003548   0.004801  -0.028082   0.430306  -0.000749  -0.040642
    10  H   -0.000398  -0.028137   0.001804  -0.003434   0.452790   0.007712
    11  H   -0.000219  -0.001690   0.007072  -0.039570   0.005149   0.443124
    12  H    0.000061   0.006503  -0.000803   0.006048  -0.029682  -0.035749
               7          8          9         10         11         12
     1  O   -0.000308   0.343976   0.003548  -0.000398  -0.000219   0.000061
     2  N   -0.053072   0.011816   0.004801  -0.028137  -0.001690   0.006503
     3  C   -0.035772  -0.026823  -0.028082   0.001804   0.007072  -0.000803
     4  C   -0.052315   0.009608   0.430306  -0.003434  -0.039570   0.006048
     5  C    0.563603  -0.000001  -0.000749   0.452790   0.005149  -0.029682
     6  C    0.407421  -0.001224  -0.040642   0.007712   0.443124  -0.035749
     7  C    4.946984   0.000561   0.007146  -0.069357  -0.036467   0.429805
     8  H    0.000561   0.447106  -0.000598  -0.000235   0.000047  -0.000023
     9  H    0.007146  -0.000598   0.563566   0.000118  -0.006903   0.000097
    10  H   -0.069357  -0.000235   0.000118   0.572321   0.000059  -0.003334
    11  H   -0.036467   0.000047  -0.006903   0.000059   0.566812  -0.004944
    12  H    0.429805  -0.000023   0.000097  -0.003334  -0.004944   0.573716
 Mulliken charges:
               1
     1  O   -0.401639
     2  N   -0.388644
     3  C    0.434981
     4  C   -0.115403
     5  C    0.095171
     6  C    0.004656
     7  C   -0.108229
     8  H    0.215790
     9  H    0.067391
    10  H    0.070091
    11  H    0.067529
    12  H    0.058305
 Sum of Mulliken charges =  -0.00000
 Mulliken charges with hydrogens summed into heavy atoms:
               1
     1  O   -0.185849
     2  N   -0.388644
     3  C    0.434981
     4  C   -0.048011
     5  C    0.165262
     6  C    0.072186
     7  C   -0.049924
 Electronic spatial extent (au):  <R**2>=            678.9325
 Charge=              0.0000 electrons
 Dipole moment (field-independent basis, Debye):
    X=              0.5929    Y=             -1.6484    Z=             -0.0000  Tot=              1.7518
 Quadrupole moment (field-independent basis, Debye-Ang):
   XX=            -37.8966   YY=            -36.2480   ZZ=            -44.0714
   XY=             -2.0819   XZ=              0.0000   YZ=             -0.0000
 Traceless Quadrupole moment (field-independent basis, Debye-Ang):
   XX=              1.5087   YY=              3.1574   ZZ=             -4.6661
   XY=             -2.0819   XZ=              0.0000   YZ=             -0.0000
 Octapole moment (field-independent basis, Debye-Ang**2):
  XXX=              6.9220  YYY=              4.8803  ZZZ=              0.0000  XYY=            -13.2503
  XXY=             -2.1833  XXZ=             -0.0000  XZZ=             -0.9988  YZZ=              5.7945
  YYZ=              0.0000  XYZ=              0.0000
 Hexadecapole moment (field-independent basis, Debye-Ang**3):
 XXXX=           -281.4441 YYYY=           -493.9766 ZZZZ=            -49.9598 XXXY=              7.5750
 XXXZ=              0.0000 YYYX=            -41.5557 YYYZ=             -0.0000 ZZZX=              0.0000
 ZZZY=             -0.0000 XXYY=           -120.8974 XXZZ=            -64.5219 YYZZ=           -108.4999
 XXYZ=             -0.0000 YYXZ=              0.0000 ZZXY=             -0.9798
 N-N= 2.658673490964D+02 E-N=-1.286102399983D+03  KE= 3.215507243926D+02
 Symmetry A'   KE= 3.098684201157D+02
 Symmetry A"   KE= 1.168230427693D+01
 Calling FoFJK, ICntrl=      2127 FMM=F ISym2X=1 I1Cent= 0 IOpClX= 0 NMat=1 NMatS=1 NMatT=0.
 ***** Axes restored to original set *****
 -------------------------------------------------------------------
 Center     Atomic                   Forces (Hartrees/Bohr)
 Number     Number              X              Y              Z
 -------------------------------------------------------------------
      1        8          -0.046764404    0.036948295   -0.000000000
      2        7          -0.034867282    0.014549090    0.000000000
      3        6          -0.009958202    0.024100318   -0.000000000
      4        6           0.010301254   -0.055013838    0.000000000
      5        6           0.072801518    0.017655794   -0.000000000
      6        6          -0.039461914   -0.059542557    0.000000000
      7        6           0.053276822    0.024344149   -0.000000000
      8        1          -0.008710998   -0.002407475    0.000000000
      9        1           0.008279016    0.000760765   -0.000000000
     10        1           0.003646219   -0.012405138    0.000000000
     11        1          -0.003188875    0.006472278   -0.000000000
     12        1          -0.005353154    0.004538319   -0.000000000
 -------------------------------------------------------------------
 Cartesian Forces:  Max     0.072801518 RMS     0.025471561

 GradGradGradGradGradGradGradGradGradGradGradGradGradGradGradGradGradGrad
 Berny optimization.
 FormGI is forming the generalized inverse of G from B-inverse, IUseBI=4.
 Internal  Forces:  Max     0.071708779 RMS     0.020859474
 Search for a local minimum.
 Step number   1 out of a maximum of   61
 All quantities printed in internal units (Hartrees-Bohrs-Radians)
 Mixed Optimization -- RFO/linear search
 Second derivative matrix not updated -- first step.
 ITU=  0
     Eigenvalues ---    0.00849   0.00934   0.01289   0.01316   0.01502
     Eigenvalues ---    0.01622   0.01750   0.02177   0.02343   0.16000
     Eigenvalues ---    0.16000   0.16000   0.16000   0.16000   0.22000
     Eigenvalues ---    0.22368   0.24486   0.25000   0.28112   0.28766
     Eigenvalues ---    0.34368   0.37180   0.37216   0.37239   0.37313
     Eigenvalues ---    0.40921   0.51562   0.53878   0.55430   0.65363
 RFO step:  Lambda=-5.81516525D-02 EMin= 8.49304147D-03
 Linear search not attempted -- first point.
 Maximum step size (   0.300) exceeded in Quadratic search.
    -- Step size scaled by   0.752
 Iteration  1 RMS(Cart)=  0.06873891 RMS(Int)=  0.00065666
 Iteration  2 RMS(Cart)=  0.00072604 RMS(Int)=  0.00010367
 Iteration  3 RMS(Cart)=  0.00000070 RMS(Int)=  0.00010366
 ClnCor:  largest displacement from symmetrization is 6.69D-09 for atom     4.
 Variable       Old X    -DE/DX   Delta X   Delta X   Delta X     New X
                                 (Linear)    (Quad)   (Total)
    R1        2.70321  -0.06444   0.00000  -0.10367  -0.10367   2.59954
    R2        1.81452   0.00284   0.00000   0.00349   0.00349   1.81800
    R3        2.45477  -0.03374   0.00000  -0.03565  -0.03553   2.41925
    R4        2.78859  -0.07171   0.00000  -0.13414  -0.13398   2.65460
    R5        2.91001  -0.06721   0.00000  -0.14668  -0.14671   2.76331
    R6        2.54974  -0.01158   0.00000  -0.01275  -0.01291   2.53683
    R7        2.02187   0.00701   0.00000   0.01224   0.01224   2.03411
    R8        2.56246  -0.01343   0.00000  -0.01728  -0.01725   2.54521
    R9        2.02276   0.00509   0.00000   0.00891   0.00891   2.03166
   R10        2.89921  -0.06683   0.00000  -0.14202  -0.14215   2.75706
   R11        2.02076   0.00688   0.00000   0.01199   0.01199   2.03276
   R12        2.02222   0.00660   0.00000   0.01153   0.01153   2.03375
    A1        1.91090  -0.01557   0.00000  -0.05365  -0.05365   1.85725
    A2        2.11996  -0.01869   0.00000  -0.05324  -0.05284   2.06712
    A3        2.08996  -0.00486   0.00000  -0.01097  -0.01102   2.07895
    A4        2.09050  -0.01862   0.00000  -0.04455  -0.04460   2.04590
    A5        2.10272   0.02348   0.00000   0.05553   0.05561   2.15834
    A6        2.08241  -0.01085   0.00000  -0.02448  -0.02470   2.05770
    A7        2.10004   0.00091   0.00000  -0.00332  -0.00321   2.09683
    A8        2.10074   0.00994   0.00000   0.02780   0.02791   2.12866
    A9        2.10285   0.01198   0.00000   0.02886   0.02902   2.13187
   A10        2.09068  -0.01801   0.00000  -0.05585  -0.05594   2.03475
   A11        2.08965   0.00603   0.00000   0.02700   0.02691   2.11656
   A12        2.07343  -0.00198   0.00000   0.00157   0.00125   2.07468
   A13        2.10490   0.00318   0.00000   0.00678   0.00694   2.11184
   A14        2.10486  -0.00120   0.00000  -0.00835  -0.00819   2.09667
   A15        2.08500  -0.00394   0.00000  -0.00823  -0.00835   2.07665
   A16        2.09877   0.00438   0.00000   0.01243   0.01249   2.11126
   A17        2.09941  -0.00045   0.00000  -0.00420  -0.00415   2.09527
    D1       -0.00000  -0.00000   0.00000  -0.00000   0.00000   0.00000
    D2        3.14159  -0.00000   0.00000  -0.00000   0.00000   3.14159
    D3        3.14159  -0.00000   0.00000  -0.00000   0.00000   3.14159
    D4        0.00000  -0.00000   0.00000  -0.00000   0.00000   0.00000
    D5       -0.00000  -0.00000   0.00000  -0.00000   0.00000   0.00000
    D6        3.14159  -0.00000   0.00000  -0.00000   0.00000   3.14159
    D7        3.14159   0.00000   0.00000   0.00000   0.00000   3.14159
    D8        0.00000   0.00000   0.00000   0.00000   0.00000   0.00000
    D9       -0.00000   0.00000   0.00000   0.00000   0.00000   0.00000
   D10        3.14159   0.00000   0.00000   0.00000   0.00000   3.14159
   D11        0.00000  -0.00000   0.00000  -0.00000  -0.00000   0.00000
   D12        3.14159  -0.00000   0.00000  -0.00000   0.00000   3.14159
   D13        3.14159  -0.00000   0.00000   0.00000   0.00000   3.14159
   D14       -0.00000  -0.00000   0.00000  -0.00000   0.00000   0.00000
   D15        0.00000   0.00000   0.00000   0.00000  -0.00000   0.00000
   D16        3.14159   0.00000   0.00000   0.00000   0.00000   3.14159
   D17        3.14159   0.00000   0.00000   0.00000   0.00000   3.14159
   D18       -0.00000   0.00000   0.00000   0.00000   0.00000   0.00000
   D19       -0.00000  -0.00000   0.00000  -0.00000   0.00000   0.00000
   D20        3.14159   0.00000   0.00000   0.00000   0.00000   3.14159
   D21        3.14159  -0.00000   0.00000  -0.00000   0.00000   3.14159
   D22        0.00000   0.00000   0.00000   0.00000  -0.00000   0.00000
         Item               Value     Threshold  Converged?
 Maximum Force            0.071709     0.000450     NO 
 RMS     Force            0.020859     0.000300     NO 
 Maximum Displacement     0.231496     0.001800     NO 
 RMS     Displacement     0.068920     0.001200     NO 
 Predicted change in Energy=-2.990473D-02
 GradGradGradGradGradGradGradGradGradGradGradGradGradGradGradGradGradGrad

                          Input orientation:                          
 ---------------------------------------------------------------------
 Center     Atomic      Atomic             Coordinates (Angstroms)
 Number     Number       Type             X           Y           Z
 ---------------------------------------------------------------------
      1          8           0        1.859467   -0.669768   -0.000000
      2          7           0       -0.408154   -0.990577    0.000000
      3          6           0        0.576776   -0.172742   -0.000000
      4          6           0        0.422888    1.281417   -0.000000
      5          6           0       -1.711920   -0.467573    0.000000
      6          6           0       -0.823045    1.781186   -0.000000
      7          6           0       -1.952495    0.857635    0.000000
      8          1           0        1.779498   -1.628484    0.000000
      9          1           0        1.291723    1.916849   -0.000000
     10          1           0       -2.516390   -1.180798    0.000000
     11          1           0       -0.993963    2.843210   -0.000000
     12          1           0       -2.959384    1.237647    0.000000
 ---------------------------------------------------------------------
                    Distance matrix (angstroms):
                    1          2          3          4          5
     1  O    0.000000
     2  N    2.290201   0.000000
     3  C    1.375620   1.280211   0.000000
     4  C    2.422990   2.419212   1.462279   0.000000
     5  C    3.577106   1.404756   2.307608   2.759777   0.000000
     6  C    3.633600   2.802643   2.403609   1.342430   2.418061
     7  C    4.106582   2.408502   2.731097   2.412890   1.346868
     8  H    0.962045   2.278759   1.888312   3.210593   3.679363
     9  H    2.648192   3.367893   2.208515   1.076405   3.835015
    10  H    4.405595   2.116800   3.253283   3.834300   1.075110
    11  H    4.525823   3.878286   3.400469   2.108712   3.387735
    12  H    5.182621   3.387294   3.807050   3.382555   2.112804
                    6          7          8          9         10
     6  C    0.000000
     7  C    1.458974   0.000000
     8  H    4.289415   4.484257   0.000000
     9  H    2.119115   3.412753   3.578730   0.000000
    10  H    3.411857   2.114991   4.319152   4.908883   0.000000
    11  H    1.075689   2.204834   5.261951   2.466273   4.302374
    12  H    2.204400   1.076213   5.538204   4.305023   2.458682
                   11         12
    11  H    0.000000
    12  H    2.537856   0.000000
 Stoichiometry    C5H5NO
 Framework group  CS[SG(C5H5NO)]
 Deg. of freedom    21
 Full point group                 CS      NOp   2
 Largest Abelian subgroup         CS      NOp   2
 Largest concise Abelian subgroup C1      NOp   1
                         Standard orientation:                         
 ---------------------------------------------------------------------
 Center     Atomic      Atomic             Coordinates (Angstroms)
 Number     Number       Type             X           Y           Z
 ---------------------------------------------------------------------
      1          8           0        0.092355    2.280719    0.000000
      2          7           0       -1.157748    0.361797    0.000000
      3          6           0        0.000000    0.908203    0.000000
      4          6           0        1.252481    0.153518    0.000000
      5          6           0       -1.235481   -1.040807    0.000000
      6          6           0        1.178165   -1.186854    0.000000
      7          6           0       -0.136517   -1.819480    0.000000
      8          1           0       -0.810157    2.613890    0.000000
      9          1           0        2.195838    0.671906    0.000000
     10          1           0       -2.222092   -1.467962    0.000000
     11          1           0        2.068134   -1.791059    0.000000
     12          1           0       -0.218206   -2.892588    0.000000
 ---------------------------------------------------------------------
 Rotational constants (GHZ):      5.7584837      2.7178604      1.8464039
 Basis read from rwf:  (5D, 7F)
 There are   223 symmetry adapted cartesian basis functions of A'  symmetry.
 There are    97 symmetry adapted cartesian basis functions of A"  symmetry.
 There are   190 symmetry adapted basis functions of A'  symmetry.
 There are    90 symmetry adapted basis functions of A"  symmetry.
   280 basis functions,   475 primitive gaussians,   320 cartesian basis functions
    25 alpha electrons       25 beta electrons
       nuclear repulsion energy       273.8885223916 Hartrees.
 NAtoms=   12 NActive=   12 NUniq=   12 SFac= 1.00D+00 NAtFMM=   60 NAOKFM=F Big=F
 Integral buffers will be    131072 words long.
 Raffenetti 2 integral format.
 Two-electron integral symmetry is turned on.
 One-electron integrals computed using PRISM.
 NBasis=   280 RedAO= T EigKep=  2.32D-04  NBF=   190    90
 NBsUse=   280 1.00D-06 EigRej= -1.00D+00 NBFU=   190    90
 Initial guess from the checkpoint file:  "2HY_CAM-B3LYP_pc2_optfreq.chk"
 B after Tr=     0.000000    0.000000   -0.000000
         Rot=    1.000000   -0.000000   -0.000000    0.000518 Ang=   0.06 deg.
 Initial guess orbital symmetries:
       Occupied  (A') (A') (A') (A') (A') (A') (A') (A') (A') (A')
                 (A') (A') (A') (A') (A') (A') (A') (A") (A') (A')
                 (A') (A") (A") (A') (A")
       Virtual   (A') (A') (A') (A') (A') (A') (A') (A') (A') (A')
                 (A') (A') (A') (A') (A') (A') (A') (A') (A') (A')
                 (A') (A') (A') (A') (A') (A') (A') (A') (A') (A')
                 (A') (A') (A') (A') (A') (A') (A') (A') (A') (A')
                 (A') (A') (A') (A') (A') (A') (A') (A') (A') (A')
                 (A') (A') (A') (A') (A') (A') (A') (A') (A') (A')
                 (A') (A') (A') (A') (A') (A') (A') (A') (A') (A')
                 (A') (A') (A') (A') (A') (A') (A') (A') (A') (A')
                 (A') (A') (A') (A') (A') (A') (A') (A') (A') (A')
                 (A') (A') (A') (A') (A') (A') (A') (A') (A') (A')
                 (A') (A') (A') (A') (A') (A') (A') (A') (A') (A')
                 (A') (A') (A') (A') (A') (A') (A') (A') (A') (A')
                 (A') (A') (A') (A') (A') (A') (A') (A') (A') (A')
                 (A') (A') (A') (A') (A') (A') (A') (A') (A') (A')
                 (A') (A') (A') (A') (A') (A') (A') (A') (A') (A')
                 (A') (A') (A') (A') (A') (A') (A') (A') (A') (A')
                 (A') (A') (A') (A') (A') (A') (A') (A') (A') (A")
                 (A") (A") (A") (A") (A") (A") (A") (A") (A") (A")
                 (A") (A") (A") (A") (A") (A") (A") (A") (A") (A")
                 (A") (A") (A") (A") (A") (A") (A") (A") (A") (A")
                 (A") (A") (A") (A") (A") (A") (A") (A") (A") (A")
                 (A") (A") (A") (A") (A") (A") (A") (A") (A") (A")
                 (A") (A") (A") (A") (A") (A") (A") (A") (A") (A")
                 (A") (A") (A") (A") (A") (A") (A") (A") (A") (A")
                 (A") (A") (A") (A") (A") (A") (A") (A") (A") (A")
                 (A") (A") (A") (A") (A")
 ExpMin= 7.41D-02 ExpMax= 1.48D+04 ExpMxC= 5.05D+02 IAcc=2 IRadAn=         4 AccDes= 0.00D+00
 Harris functional with IExCor=20419 and IRadAn=       4 diagonalized for initial guess.
 HarFok:  IExCor=20419 AccDes= 0.00D+00 IRadAn=         4 IDoV= 1 UseB2=F ITyADJ=14
 ICtDFT=  3500011 ScaDFX=  1.000000  1.000000  1.000000  1.000000
 FoFCou: FMM=F IPFlag=           0 FMFlag=      100000 FMFlg1=           0
         NFxFlg=           0 DoJE=T BraDBF=F KetDBF=T FulRan=T
         wScrn=  0.000000 ICntrl=     500 IOpCl=  0 I1Cent=   200000004 NGrid=           0
         NMat0=    1 NMatS0=      1 NMatT0=    0 NMatD0=    1 NMtDS0=    0 NMtDT0=    0
 Petite list used in FoFCou.
 Keep R1 ints in memory in symmetry-blocked form, NReq=2335173138.
 Requested convergence on RMS density matrix=1.00D-08 within 128 cycles.
 Requested convergence on MAX density matrix=1.00D-06.
 Requested convergence on             energy=1.00D-06.
 No special actions if energy rises.
 Integral accuracy reduced to 1.0D-05 until final iterations.
 Initial convergence to 1.0D-05 achieved.  Increase integral accuracy.
 SCF Done:  E(RCAM-B3LYP) =  -323.491166089     A.U. after   13 cycles
            NFock= 13  Conv=0.65D-08     -V/T= 2.0040
 Calling FoFJK, ICntrl=      2127 FMM=F ISym2X=1 I1Cent= 0 IOpClX= 0 NMat=1 NMatS=1 NMatT=0.
 ***** Axes restored to original set *****
 -------------------------------------------------------------------
 Center     Atomic                   Forces (Hartrees/Bohr)
 Number     Number              X              Y              Z
 -------------------------------------------------------------------
      1        8          -0.020293327    0.012070107   -0.000000000
      2        7          -0.041964834   -0.000790343    0.000000000
      3        6           0.018068218    0.033280376   -0.000000000
      4        6           0.016140162   -0.033339217    0.000000000
      5        6           0.040422165   -0.010973441   -0.000000000
      6        6          -0.034495525   -0.024262767    0.000000000
      7        6           0.022766217    0.028506573   -0.000000000
      8        1          -0.000720872   -0.002310501    0.000000000
      9        1           0.003177207   -0.000948774   -0.000000000
     10        1           0.000192922   -0.005024392    0.000000000
     11        1          -0.001196489    0.003001117   -0.000000000
     12        1          -0.002095844    0.000791262    0.000000000
 -------------------------------------------------------------------
 Cartesian Forces:  Max     0.041964834 RMS     0.016705570

 GradGradGradGradGradGradGradGradGradGradGradGradGradGradGradGradGradGrad
 Berny optimization.
 Using GEDIIS/GDIIS optimizer.
 FormGI is forming the generalized inverse of G from B-inverse, IUseBI=4.
 Internal  Forces:  Max     0.037633033 RMS     0.009564157
 Search for a local minimum.
 Step number   2 out of a maximum of   61
 All quantities printed in internal units (Hartrees-Bohrs-Radians)
 Mixed Optimization -- RFO/linear search
 Update second derivatives using D2CorX and points    1    2
 DE= -3.18D-02 DEPred=-2.99D-02 R= 1.06D+00
 TightC=F SS=  1.41D+00  RLast= 3.00D-01 DXNew= 5.0454D-01 8.9999D-01
 Trust test= 1.06D+00 RLast= 3.00D-01 DXMaxT set to 5.05D-01
 ITU=  1  0
 Use linear search instead of GDIIS.
     Eigenvalues ---    0.00857   0.00941   0.01289   0.01318   0.01517
     Eigenvalues ---    0.01638   0.01782   0.02188   0.02353   0.15869
     Eigenvalues ---    0.16000   0.16000   0.16000   0.16486   0.21608
     Eigenvalues ---    0.22382   0.22871   0.24937   0.25659   0.28242
     Eigenvalues ---    0.32315   0.37167   0.37220   0.37258   0.37307
     Eigenvalues ---    0.40886   0.51482   0.55402   0.55520   0.74184
 RFO step:  Lambda=-5.75679595D-03 EMin= 8.56811424D-03
 Quartic linear search produced a step of  0.53596.
 Iteration  1 RMS(Cart)=  0.03793400 RMS(Int)=  0.00020008
 Iteration  2 RMS(Cart)=  0.00016933 RMS(Int)=  0.00006320
 Iteration  3 RMS(Cart)=  0.00000003 RMS(Int)=  0.00006320
 ClnCor:  largest displacement from symmetrization is 5.91D-13 for atom    12.
 Variable       Old X    -DE/DX   Delta X   Delta X   Delta X     New X
                                 (Linear)    (Quad)   (Total)
    R1        2.59954  -0.02312  -0.05556  -0.00507  -0.06063   2.53892
    R2        1.81800   0.00236   0.00187   0.00395   0.00582   1.82382
    R3        2.41925   0.00987  -0.01904   0.04688   0.02790   2.44715
    R4        2.65460  -0.03763  -0.07181  -0.05511  -0.12682   2.52779
    R5        2.76331  -0.03416  -0.07863  -0.05114  -0.12979   2.63351
    R6        2.53683   0.01092  -0.00692   0.04038   0.03335   2.57018
    R7        2.03411   0.00200   0.00656  -0.00161   0.00495   2.03906
    R8        2.54521   0.00779  -0.00924   0.03340   0.02419   2.56941
    R9        2.03166   0.00319   0.00477   0.00586   0.01063   2.04230
   R10        2.75706  -0.03271  -0.07619  -0.04716  -0.12342   2.63364
   R11        2.03276   0.00315   0.00643   0.00322   0.00965   2.04241
   R12        2.03375   0.00224   0.00618  -0.00009   0.00609   2.03984
    A1        1.85725  -0.00096  -0.02875   0.04962   0.02087   1.87811
    A2        2.06712  -0.00437  -0.02832   0.01816  -0.00992   2.05720
    A3        2.07895  -0.00093  -0.00591   0.00341  -0.00251   2.07643
    A4        2.04590  -0.00389  -0.02390   0.01604  -0.00787   2.03803
    A5        2.15834   0.00482   0.02981  -0.01945   0.01038   2.16872
    A6        2.05770  -0.00389  -0.01324   0.00287  -0.01052   2.04718
    A7        2.09683  -0.00074  -0.00172  -0.00932  -0.01096   2.08586
    A8        2.12866   0.00463   0.01496   0.00645   0.02149   2.15014
    A9        2.13187   0.00452   0.01555  -0.00206   0.01362   2.14550
   A10        2.03475  -0.00621  -0.02998   0.00965  -0.02039   2.01435
   A11        2.11656   0.00169   0.01443  -0.00759   0.00677   2.12334
   A12        2.07468   0.00080   0.00067   0.00768   0.00816   2.08284
   A13        2.11184   0.00032   0.00372  -0.00546  -0.00164   2.11019
   A14        2.09667  -0.00111  -0.00439  -0.00222  -0.00651   2.09016
   A15        2.07665  -0.00187  -0.00447  -0.00720  -0.01172   2.06494
   A16        2.11126   0.00093   0.00669  -0.00547   0.00125   2.11251
   A17        2.09527   0.00093  -0.00222   0.01266   0.01047   2.10573
    D1       -0.00000   0.00000   0.00000   0.00000   0.00000   0.00000
    D2        3.14159   0.00000   0.00000   0.00000   0.00000   3.14159
    D3        3.14159   0.00000   0.00000   0.00000   0.00000   3.14159
    D4       -0.00000  -0.00000   0.00000  -0.00000   0.00000   0.00000
    D5       -0.00000   0.00000   0.00000   0.00000   0.00000   0.00000
    D6        3.14159  -0.00000   0.00000   0.00000   0.00000   3.14159
    D7        3.14159   0.00000   0.00000   0.00000   0.00000   3.14159
    D8       -0.00000   0.00000   0.00000  -0.00000   0.00000   0.00000
    D9        0.00000   0.00000   0.00000   0.00000   0.00000   0.00000
   D10        3.14159   0.00000   0.00000   0.00000   0.00000   3.14159
   D11       -0.00000  -0.00000   0.00000  -0.00000   0.00000   0.00000
   D12        3.14159  -0.00000   0.00000  -0.00000   0.00000   3.14159
   D13        3.14159  -0.00000   0.00000  -0.00000   0.00000   3.14159
   D14        0.00000  -0.00000   0.00000  -0.00000   0.00000   0.00000
   D15        0.00000  -0.00000   0.00000  -0.00000   0.00000   0.00000
   D16        3.14159  -0.00000   0.00000  -0.00000   0.00000   3.14159
   D17        3.14159   0.00000   0.00000  -0.00000   0.00000   3.14159
   D18       -0.00000  -0.00000   0.00000  -0.00000   0.00000   0.00000
   D19       -0.00000   0.00000   0.00000   0.00000   0.00000   0.00000
   D20        3.14159   0.00000   0.00000   0.00000   0.00000   3.14159
   D21        3.14159   0.00000   0.00000   0.00000   0.00000   3.14159
   D22        0.00000   0.00000   0.00000   0.00000  -0.00000   0.00000
         Item               Value     Threshold  Converged?
 Maximum Force            0.037633     0.000450     NO 
 RMS     Force            0.009564     0.000300     NO 
 Maximum Displacement     0.100301     0.001800     NO 
 RMS     Displacement     0.037943     0.001200     NO 
 Predicted change in Energy=-9.610264D-03
 GradGradGradGradGradGradGradGradGradGradGradGradGradGradGradGradGradGrad

                          Input orientation:                          
 ---------------------------------------------------------------------
 Center     Atomic      Atomic             Coordinates (Angstroms)
 Number     Number       Type             X           Y           Z
 ---------------------------------------------------------------------
      1          8           0        1.811244   -0.629651   -0.000000
      2          7           0       -0.436121   -0.971485    0.000000
      3          6           0        0.559011   -0.142824   -0.000000
      4          6           0        0.424809    1.244295   -0.000000
      5          6           0       -1.673313   -0.462902    0.000000
      6          6           0       -0.838282    1.748695   -0.000000
      7          6           0       -1.922991    0.873648    0.000000
      8          1           0        1.750030   -1.592834    0.000000
      9          1           0        1.308291    1.863772   -0.000000
     10          1           0       -2.473427   -1.189407    0.000000
     11          1           0       -1.009896    2.815779   -0.000000
     12          1           0       -2.934355    1.250913    0.000000
 ---------------------------------------------------------------------
                    Distance matrix (angstroms):
                    1          2          3          4          5
     1  O    0.000000
     2  N    2.273213   0.000000
     3  C    1.343536   1.294977   0.000000
     4  C    2.331068   2.377158   1.393595   0.000000
     5  C    3.488544   1.337647   2.255154   2.704928   0.000000
     6  C    3.560410   2.749747   2.351652   1.360080   2.363988
     7  C    4.025472   2.369662   2.682079   2.376877   1.359671
     8  H    0.965126   2.272737   1.876448   3.131375   3.605000
     9  H    2.543643   3.328912   2.141926   1.079024   3.781980
    10  H    4.321080   2.048928   3.207961   3.784531   1.080737
    11  H    4.453069   3.830481   3.348851   2.127896   3.345127
    12  H    5.104628   3.343684   3.761131   3.359170   2.127766
                    6          7          8          9         10
     6  C    0.000000
     7  C    1.393664   0.000000
     8  H    4.226722   4.424321   0.000000
     9  H    2.149656   3.379575   3.484717   0.000000
    10  H    3.362461   2.135223   4.242681   4.860380   0.000000
    11  H    1.080796   2.146070   5.201256   2.506055   4.264205
    12  H    2.154369   1.079437   5.479996   4.286682   2.483469
                   11         12
    11  H    0.000000
    12  H    2.480392   0.000000
 Stoichiometry    C5H5NO
 Framework group  CS[SG(C5H5NO)]
 Deg. of freedom    21
 Full point group                 CS      NOp   2
 Largest Abelian subgroup         CS      NOp   2
 Largest concise Abelian subgroup C1      NOp   1
                         Standard orientation:                         
 ---------------------------------------------------------------------
 Center     Atomic      Atomic             Coordinates (Angstroms)
 Number     Number       Type             X           Y           Z
 ---------------------------------------------------------------------
      1          8           0        0.063238    2.229999   -0.000000
      2          7           0       -1.161199    0.314731   -0.000000
      3          6           0        0.000000    0.887952   -0.000000
      4          6           0        1.213302    0.202382    0.000000
      5          6           0       -1.198451   -1.022398   -0.000000
      6          6           0        1.161718   -1.156720    0.000000
      7          6           0       -0.078228   -1.792986    0.000000
      8          1           0       -0.841908    2.564928   -0.000000
      9          1           0        2.138007    0.758451    0.000000
     10          1           0       -2.187143   -1.458838   -0.000000
     11          1           0        2.067341   -1.746607    0.000000
     12          1           0       -0.143853   -2.870427    0.000000
 ---------------------------------------------------------------------
 Rotational constants (GHZ):      5.9756129      2.8278648      1.9194943
 Basis read from rwf:  (5D, 7F)
 There are   223 symmetry adapted cartesian basis functions of A'  symmetry.
 There are    97 symmetry adapted cartesian basis functions of A"  symmetry.
 There are   190 symmetry adapted basis functions of A'  symmetry.
 There are    90 symmetry adapted basis functions of A"  symmetry.
   280 basis functions,   475 primitive gaussians,   320 cartesian basis functions
    25 alpha electrons       25 beta electrons
       nuclear repulsion energy       278.6200126458 Hartrees.
 NAtoms=   12 NActive=   12 NUniq=   12 SFac= 1.00D+00 NAtFMM=   60 NAOKFM=F Big=F
 Integral buffers will be    131072 words long.
 Raffenetti 2 integral format.
 Two-electron integral symmetry is turned on.
 One-electron integrals computed using PRISM.
 NBasis=   280 RedAO= T EigKep=  2.10D-04  NBF=   190    90
 NBsUse=   280 1.00D-06 EigRej= -1.00D+00 NBFU=   190    90
 Initial guess from the checkpoint file:  "2HY_CAM-B3LYP_pc2_optfreq.chk"
 B after Tr=    -0.000000   -0.000000    0.000000
         Rot=    0.999958    0.000000   -0.000000   -0.009144 Ang=  -1.05 deg.
 Initial guess orbital symmetries:
       Occupied  (A') (A') (A') (A') (A') (A') (A') (A') (A') (A')
                 (A') (A') (A') (A') (A') (A') (A') (A") (A') (A')
                 (A') (A") (A") (A') (A")
       Virtual   (A') (A') (A') (A') (A') (A') (A') (A') (A') (A')
                 (A') (A') (A') (A') (A') (A') (A') (A') (A') (A')
                 (A') (A') (A') (A') (A') (A') (A') (A') (A') (A')
                 (A') (A') (A') (A') (A') (A') (A') (A') (A') (A')
                 (A') (A') (A') (A') (A') (A') (A') (A') (A') (A')
                 (A') (A') (A') (A') (A') (A') (A') (A') (A') (A')
                 (A') (A') (A') (A') (A') (A') (A') (A') (A') (A')
                 (A') (A') (A') (A') (A') (A') (A') (A') (A') (A')
                 (A') (A') (A') (A') (A') (A') (A') (A') (A') (A')
                 (A') (A') (A') (A') (A') (A') (A') (A') (A') (A')
                 (A') (A') (A') (A') (A') (A') (A') (A') (A') (A')
                 (A') (A') (A') (A') (A') (A') (A') (A') (A') (A')
                 (A') (A') (A') (A') (A') (A') (A') (A') (A') (A')
                 (A') (A') (A') (A') (A') (A') (A') (A') (A') (A')
                 (A') (A') (A') (A') (A') (A') (A') (A') (A') (A')
                 (A') (A') (A') (A') (A') (A') (A') (A') (A') (A')
                 (A') (A') (A') (A') (A') (A') (A') (A') (A') (A")
                 (A") (A") (A") (A") (A") (A") (A") (A") (A") (A")
                 (A") (A") (A") (A") (A") (A") (A") (A") (A") (A")
                 (A") (A") (A") (A") (A") (A") (A") (A") (A") (A")
                 (A") (A") (A") (A") (A") (A") (A") (A") (A") (A")
                 (A") (A") (A") (A") (A") (A") (A") (A") (A") (A")
                 (A") (A") (A") (A") (A") (A") (A") (A") (A") (A")
                 (A") (A") (A") (A") (A") (A") (A") (A") (A") (A")
                 (A") (A") (A") (A") (A") (A") (A") (A") (A") (A")
                 (A") (A") (A") (A") (A")
 ExpMin= 7.41D-02 ExpMax= 1.48D+04 ExpMxC= 5.05D+02 IAcc=2 IRadAn=         4 AccDes= 0.00D+00
 Harris functional with IExCor=20419 and IRadAn=       4 diagonalized for initial guess.
 HarFok:  IExCor=20419 AccDes= 0.00D+00 IRadAn=         4 IDoV= 1 UseB2=F ITyADJ=14
 ICtDFT=  3500011 ScaDFX=  1.000000  1.000000  1.000000  1.000000
 FoFCou: FMM=F IPFlag=           0 FMFlag=      100000 FMFlg1=           0
         NFxFlg=           0 DoJE=T BraDBF=F KetDBF=T FulRan=T
         wScrn=  0.000000 ICntrl=     500 IOpCl=  0 I1Cent=   200000004 NGrid=           0
         NMat0=    1 NMatS0=      1 NMatT0=    0 NMatD0=    1 NMtDS0=    0 NMtDT0=    0
 Petite list used in FoFCou.
 Keep R1 ints in memory in symmetry-blocked form, NReq=2335173138.
 Requested convergence on RMS density matrix=1.00D-08 within 128 cycles.
 Requested convergence on MAX density matrix=1.00D-06.
 Requested convergence on             energy=1.00D-06.
 No special actions if energy rises.
 Integral accuracy reduced to 1.0D-05 until final iterations.
 Initial convergence to 1.0D-05 achieved.  Increase integral accuracy.
 SCF Done:  E(RCAM-B3LYP) =  -323.499480023     A.U. after   13 cycles
            NFock= 13  Conv=0.71D-08     -V/T= 2.0028
 Calling FoFJK, ICntrl=      2127 FMM=F ISym2X=1 I1Cent= 0 IOpClX= 0 NMat=1 NMatS=1 NMatT=0.
 ***** Axes restored to original set *****
 -------------------------------------------------------------------
 Center     Atomic                   Forces (Hartrees/Bohr)
 Number     Number              X              Y              Z
 -------------------------------------------------------------------
      1        8           0.003370348   -0.005924503    0.000000000
      2        7          -0.010153347   -0.011302558    0.000000000
      3        6           0.012350609    0.010773380   -0.000000000
      4        6           0.006831619    0.001251703   -0.000000000
      5        6           0.002508390   -0.011584532    0.000000000
      6        6          -0.008146933    0.004134979   -0.000000000
      7        6          -0.005180178    0.011602597   -0.000000000
      8        1          -0.000393149    0.001068249   -0.000000000
      9        1          -0.000310732    0.000389598   -0.000000000
     10        1          -0.001508744   -0.000028081    0.000000000
     11        1           0.001002188    0.000453941   -0.000000000
     12        1          -0.000370070   -0.000834772    0.000000000
 -------------------------------------------------------------------
 Cartesian Forces:  Max     0.012350609 RMS     0.005231906

 GradGradGradGradGradGradGradGradGradGradGradGradGradGradGradGradGradGrad
 Berny optimization.
 Using GEDIIS/GDIIS optimizer.
 FormGI is forming the generalized inverse of G from B-inverse, IUseBI=4.
 Internal  Forces:  Max     0.016050306 RMS     0.003556219
 Search for a local minimum.
 Step number   3 out of a maximum of   61
 All quantities printed in internal units (Hartrees-Bohrs-Radians)
 Mixed Optimization -- RFO/linear search
 Update second derivatives using D2CorX and points    1    2    3
 DE= -8.31D-03 DEPred=-9.61D-03 R= 8.65D-01
 TightC=F SS=  1.41D+00  RLast= 2.39D-01 DXNew= 8.4853D-01 7.1640D-01
 Trust test= 8.65D-01 RLast= 2.39D-01 DXMaxT set to 7.16D-01
 ITU=  1  1  0
 Use linear search instead of GDIIS.
     Eigenvalues ---    0.00863   0.00940   0.01289   0.01320   0.01526
     Eigenvalues ---    0.01654   0.01799   0.02190   0.02356   0.15944
     Eigenvalues ---    0.16000   0.16000   0.16100   0.16439   0.21751
     Eigenvalues ---    0.22393   0.23735   0.25090   0.28056   0.29537
     Eigenvalues ---    0.32084   0.37170   0.37220   0.37256   0.37303
     Eigenvalues ---    0.40982   0.51573   0.55431   0.56521   0.83129
 RFO step:  Lambda=-9.51207878D-04 EMin= 8.63455376D-03
 Quartic linear search produced a step of -0.02713.
 Iteration  1 RMS(Cart)=  0.00975290 RMS(Int)=  0.00008539
 Iteration  2 RMS(Cart)=  0.00009031 RMS(Int)=  0.00000161
 Iteration  3 RMS(Cart)=  0.00000000 RMS(Int)=  0.00000161
 ClnCor:  largest displacement from symmetrization is 6.22D-13 for atom     1.
 Variable       Old X    -DE/DX   Delta X   Delta X   Delta X     New X
                                 (Linear)    (Quad)   (Total)
    R1        2.53892   0.00453   0.00164   0.00085   0.00249   2.54141
    R2        1.82382  -0.00104  -0.00016  -0.00140  -0.00156   1.82226
    R3        2.44715   0.01605  -0.00076   0.02018   0.01942   2.46658
    R4        2.52779   0.00181   0.00344  -0.00810  -0.00466   2.52313
    R5        2.63351   0.00518   0.00352   0.00235   0.00588   2.63939
    R6        2.57018   0.01044  -0.00090   0.01687   0.01597   2.58615
    R7        2.03906  -0.00003  -0.00013   0.00104   0.00090   2.03996
    R8        2.56941   0.01242  -0.00066   0.02040   0.01974   2.58915
    R9        2.04230   0.00114  -0.00029   0.00377   0.00348   2.04578
   R10        2.63364   0.00303   0.00335  -0.00553  -0.00218   2.63146
   R11        2.04241   0.00029  -0.00026   0.00188   0.00162   2.04403
   R12        2.03984   0.00006  -0.00017   0.00121   0.00104   2.04088
    A1        1.87811  -0.00084  -0.00057  -0.01001  -0.01058   1.86753
    A2        2.05720   0.00023   0.00027  -0.00214  -0.00188   2.05532
    A3        2.07643  -0.00383   0.00007  -0.01598  -0.01591   2.06053
    A4        2.03803   0.00578   0.00021   0.01685   0.01706   2.05509
    A5        2.16872  -0.00195  -0.00028  -0.00087  -0.00115   2.16757
    A6        2.04718   0.00034   0.00029  -0.00149  -0.00120   2.04598
    A7        2.08586   0.00034   0.00030   0.00179   0.00208   2.08794
    A8        2.15014  -0.00067  -0.00058  -0.00030  -0.00088   2.14926
    A9        2.14550   0.00051  -0.00037   0.00514   0.00477   2.15026
   A10        2.01435   0.00076   0.00055  -0.00113  -0.00058   2.01378
   A11        2.12334  -0.00127  -0.00018  -0.00401  -0.00419   2.11915
   A12        2.08284   0.00111  -0.00022   0.00305   0.00284   2.08568
   A13        2.11019  -0.00164   0.00004  -0.00705  -0.00701   2.10318
   A14        2.09016   0.00053   0.00018   0.00400   0.00417   2.09433
   A15        2.06494  -0.00024   0.00032  -0.00370  -0.00338   2.06156
   A16        2.11251  -0.00081  -0.00003  -0.00280  -0.00283   2.10968
   A17        2.10573   0.00105  -0.00028   0.00650   0.00621   2.11195
    D1        0.00000   0.00000   0.00000  -0.00000   0.00000   0.00000
    D2        3.14159  -0.00000   0.00000  -0.00000   0.00000   3.14159
    D3        3.14159  -0.00000   0.00000  -0.00000   0.00000   3.14159
    D4        0.00000  -0.00000   0.00000  -0.00000   0.00000   0.00000
    D5       -0.00000   0.00000   0.00000   0.00000   0.00000   0.00000
    D6        3.14159   0.00000   0.00000   0.00000   0.00000   3.14159
    D7        3.14159   0.00000   0.00000   0.00000   0.00000   3.14159
    D8       -0.00000   0.00000   0.00000   0.00000   0.00000   0.00000
    D9       -0.00000   0.00000   0.00000  -0.00000   0.00000   0.00000
   D10        3.14159  -0.00000   0.00000  -0.00000   0.00000   3.14159
   D11        0.00000   0.00000   0.00000   0.00000   0.00000   0.00000
   D12        3.14159  -0.00000   0.00000  -0.00000   0.00000   3.14159
   D13        3.14159   0.00000   0.00000   0.00000   0.00000   3.14159
   D14        0.00000   0.00000   0.00000   0.00000  -0.00000   0.00000
   D15        0.00000  -0.00000   0.00000  -0.00000  -0.00000   0.00000
   D16        3.14159   0.00000   0.00000  -0.00000   0.00000   3.14159
   D17        3.14159  -0.00000   0.00000  -0.00000   0.00000   3.14159
   D18        0.00000  -0.00000   0.00000  -0.00000   0.00000   0.00000
   D19       -0.00000  -0.00000   0.00000  -0.00000   0.00000   0.00000
   D20        3.14159  -0.00000   0.00000  -0.00000   0.00000   3.14159
   D21        3.14159   0.00000   0.00000   0.00000   0.00000   3.14159
   D22       -0.00000   0.00000   0.00000   0.00000   0.00000   0.00000
         Item               Value     Threshold  Converged?
 Maximum Force            0.016050     0.000450     NO 
 RMS     Force            0.003556     0.000300     NO 
 Maximum Displacement     0.036383     0.001800     NO 
 RMS     Displacement     0.009732     0.001200     NO 
 Predicted change in Energy=-4.805580D-04
 GradGradGradGradGradGradGradGradGradGradGradGradGradGradGradGradGradGrad

                          Input orientation:                          
 ---------------------------------------------------------------------
 Center     Atomic      Atomic             Coordinates (Angstroms)
 Number     Number       Type             X           Y           Z
 ---------------------------------------------------------------------
      1          8           0        1.815420   -0.642386   -0.000000
      2          7           0       -0.432478   -0.975089    0.000000
      3          6           0        0.568823   -0.137779   -0.000000
      4          6           0        0.429846    1.251995   -0.000000
      5          6           0       -1.667484   -0.467677    0.000000
      6          6           0       -0.843324    1.753910   -0.000000
      7          6           0       -1.925752    0.877878    0.000000
      8          1           0        1.730777   -1.602964    0.000000
      9          1           0        1.310421    1.876422   -0.000000
     10          1           0       -2.468403   -1.196035    0.000000
     11          1           0       -1.012305    2.822284   -0.000000
     12          1           0       -2.940542    1.247441    0.000000
 ---------------------------------------------------------------------
                    Distance matrix (angstroms):
                    1          2          3          4          5
     1  O    0.000000
     2  N    2.272386   0.000000
     3  C    1.344854   1.305256   0.000000
     4  C    2.347018   2.388201   1.396705   0.000000
     5  C    3.487283   1.335180   2.260509   2.712206   0.000000
     6  C    3.579268   2.759752   2.360646   1.368532   2.369534
     7  C    4.038264   2.379780   2.693412   2.385122   1.370117
     8  H    0.964300   2.252532   1.870001   3.137389   3.582884
     9  H    2.568934   3.341978   2.146386   1.079501   3.789818
    10  H    4.319453   2.047879   3.216310   3.793771   1.082579
    11  H    4.472132   3.841385   3.355881   2.132043   3.354564
    12  H    5.117678   3.351123   3.772861   3.370391   2.135955
                    6          7          8          9         10
     6  C    0.000000
     7  C    1.392510   0.000000
     8  H    4.230201   4.418686   0.000000
     9  H    2.157227   3.386726   3.504686   0.000000
    10  H    3.367946   2.143732   4.218852   4.870268   0.000000
    11  H    1.081654   2.148278   5.206469   2.507930   4.274004
    12  H    2.157507   1.079989   5.472297   4.297244   2.488672
                   11         12
    11  H    0.000000
    12  H    2.489624   0.000000
 Stoichiometry    C5H5NO
 Framework group  CS[SG(C5H5NO)]
 Deg. of freedom    21
 Full point group                 CS      NOp   2
 Largest Abelian subgroup         CS      NOp   2
 Largest concise Abelian subgroup C1      NOp   1
                         Standard orientation:                         
 ---------------------------------------------------------------------
 Center     Atomic      Atomic             Coordinates (Angstroms)
 Number     Number       Type             X           Y           Z
 ---------------------------------------------------------------------
      1          8           0        0.032520    2.237067   -0.000000
      2          7           0       -1.166346    0.306664    0.000000
      3          6           0        0.000000    0.892606    0.000000
      4          6           0        1.220003    0.212622   -0.000000
      5          6           0       -1.191684   -1.028276    0.000000
      6          6           0        1.174450   -1.155152   -0.000000
      7          6           0       -0.059677   -1.800144    0.000000
      8          1           0       -0.882548    2.541246    0.000000
      9          1           0        2.143018    0.772412   -0.000000
     10          1           0       -2.178402   -1.473660    0.000000
     11          1           0        2.087610   -1.734906   -0.000000
     12          1           0       -0.123965   -2.878217    0.000000
 ---------------------------------------------------------------------
 Rotational constants (GHZ):      5.9367549      2.8126074      1.9084546
 Basis read from rwf:  (5D, 7F)
 There are   223 symmetry adapted cartesian basis functions of A'  symmetry.
 There are    97 symmetry adapted cartesian basis functions of A"  symmetry.
 There are   190 symmetry adapted basis functions of A'  symmetry.
 There are    90 symmetry adapted basis functions of A"  symmetry.
   280 basis functions,   475 primitive gaussians,   320 cartesian basis functions
    25 alpha electrons       25 beta electrons
       nuclear repulsion energy       277.8396848629 Hartrees.
 NAtoms=   12 NActive=   12 NUniq=   12 SFac= 1.00D+00 NAtFMM=   60 NAOKFM=F Big=F
 Integral buffers will be    131072 words long.
 Raffenetti 2 integral format.
 Two-electron integral symmetry is turned on.
 One-electron integrals computed using PRISM.
 NBasis=   280 RedAO= T EigKep=  2.15D-04  NBF=   190    90
 NBsUse=   280 1.00D-06 EigRej= -1.00D+00 NBFU=   190    90
 Initial guess from the checkpoint file:  "2HY_CAM-B3LYP_pc2_optfreq.chk"
 B after Tr=    -0.000000    0.000000   -0.000000
         Rot=    0.999989   -0.000000   -0.000000   -0.004665 Ang=  -0.53 deg.
 Initial guess orbital symmetries:
       Occupied  (A') (A') (A') (A') (A') (A') (A') (A') (A') (A')
                 (A') (A') (A') (A') (A') (A') (A") (A') (A') (A')
                 (A') (A") (A") (A') (A")
       Virtual   (A') (A') (A') (A') (A') (A') (A') (A') (A') (A')
                 (A') (A') (A') (A') (A') (A') (A') (A') (A') (A')
                 (A') (A') (A') (A') (A') (A') (A') (A') (A') (A')
                 (A') (A') (A') (A') (A') (A') (A') (A') (A') (A')
                 (A') (A') (A') (A') (A') (A') (A') (A') (A') (A')
                 (A') (A') (A') (A') (A') (A') (A') (A') (A') (A')
                 (A') (A') (A') (A') (A') (A') (A') (A') (A') (A')
                 (A') (A') (A') (A') (A') (A') (A') (A') (A') (A')
                 (A') (A') (A') (A') (A') (A') (A') (A') (A') (A')
                 (A') (A') (A') (A') (A') (A') (A') (A') (A') (A')
                 (A') (A') (A') (A') (A') (A') (A') (A') (A') (A')
                 (A') (A') (A') (A') (A') (A') (A') (A') (A') (A')
                 (A') (A') (A') (A') (A') (A') (A') (A') (A') (A')
                 (A') (A') (A') (A') (A') (A') (A') (A') (A') (A')
                 (A') (A') (A') (A') (A') (A') (A') (A') (A') (A')
                 (A') (A') (A') (A') (A') (A') (A') (A') (A') (A')
                 (A') (A') (A') (A') (A') (A') (A') (A') (A') (A")
                 (A") (A") (A") (A") (A") (A") (A") (A") (A") (A")
                 (A") (A") (A") (A") (A") (A") (A") (A") (A") (A")
                 (A") (A") (A") (A") (A") (A") (A") (A") (A") (A")
                 (A") (A") (A") (A") (A") (A") (A") (A") (A") (A")
                 (A") (A") (A") (A") (A") (A") (A") (A") (A") (A")
                 (A") (A") (A") (A") (A") (A") (A") (A") (A") (A")
                 (A") (A") (A") (A") (A") (A") (A") (A") (A") (A")
                 (A") (A") (A") (A") (A") (A") (A") (A") (A") (A")
                 (A") (A") (A") (A") (A")
 ExpMin= 7.41D-02 ExpMax= 1.48D+04 ExpMxC= 5.05D+02 IAcc=2 IRadAn=         4 AccDes= 0.00D+00
 Harris functional with IExCor=20419 and IRadAn=       4 diagonalized for initial guess.
[...]
 Cartesian Forces:  Max     0.000084361 RMS     0.000023822
 FormGI is forming the generalized inverse of G from B-inverse, IUseBI=4.

 GradGradGradGradGradGradGradGradGradGradGradGradGradGradGradGradGradGrad
 Berny optimization.
 Internal  Forces:  Max     0.000059776 RMS     0.000018638
 Search for a local minimum.
 Step number   1 out of a maximum of    2
 All quantities printed in internal units (Hartrees-Bohrs-Radians)
 Second derivative matrix not updated -- analytic derivatives used.
 ITU=  0
     Eigenvalues ---    0.01354   0.01653   0.01814   0.02278   0.02409
     Eigenvalues ---    0.02809   0.03164   0.03814   0.04564   0.10583
     Eigenvalues ---    0.11217   0.12252   0.13213   0.15793   0.19389
     Eigenvalues ---    0.20396   0.21956   0.23777   0.31526   0.35738
     Eigenvalues ---    0.36282   0.36722   0.36880   0.39281   0.45156
     Eigenvalues ---    0.46592   0.49621   0.52969   0.53971   0.59930
 Angle between quadratic step and forces=  38.79 degrees.
 Linear search not attempted -- first point.
 Iteration  1 RMS(Cart)=  0.00010136 RMS(Int)=  0.00000001
 Iteration  2 RMS(Cart)=  0.00000001 RMS(Int)=  0.00000000
 ClnCor:  largest displacement from symmetrization is 8.84D-13 for atom     1.
 Variable       Old X    -DE/DX   Delta X   Delta X   Delta X     New X
                                 (Linear)    (Quad)   (Total)
    R1        2.54402  -0.00000   0.00000  -0.00003  -0.00003   2.54399
    R2        1.82213   0.00001   0.00000   0.00000   0.00000   1.82213
    R3        2.48587  -0.00005   0.00000  -0.00008  -0.00008   2.48580
    R4        2.51779  -0.00003   0.00000  -0.00008  -0.00008   2.51771
    R5        2.63106  -0.00006   0.00000  -0.00015  -0.00015   2.63091
    R6        2.59769  -0.00002   0.00000  -0.00000  -0.00000   2.59769
    R7        2.03880   0.00000   0.00000   0.00001   0.00001   2.03881
    R8        2.60234  -0.00005   0.00000  -0.00007  -0.00007   2.60227
    R9        2.04584   0.00000   0.00000   0.00002   0.00002   2.04586
   R10        2.62699  -0.00005   0.00000  -0.00013  -0.00013   2.62687
   R11        2.04309  -0.00001   0.00000  -0.00001  -0.00001   2.04308
   R12        2.03938   0.00000   0.00000   0.00001   0.00001   2.03938
    A1        1.86555   0.00004   0.00000   0.00021   0.00021   1.86575
    A2        2.05820   0.00001   0.00000   0.00007   0.00007   2.05827
    A3        2.05076   0.00001   0.00000   0.00005   0.00005   2.05080
    A4        2.07074   0.00001   0.00000   0.00006   0.00006   2.07080
    A5        2.16169  -0.00002   0.00000  -0.00011  -0.00011   2.16158
    A6        2.04937   0.00001   0.00000   0.00006   0.00006   2.04943
    A7        2.09367   0.00002   0.00000   0.00022   0.00022   2.09388
    A8        2.14015  -0.00003   0.00000  -0.00028  -0.00028   2.13987
    A9        2.15065   0.00001   0.00000   0.00002   0.00002   2.15067
   A10        2.02334   0.00000   0.00000   0.00004   0.00004   2.02337
   A11        2.10920  -0.00001   0.00000  -0.00006  -0.00006   2.10914
   A12        2.08772   0.00000   0.00000   0.00002   0.00002   2.08773
   A13        2.09385  -0.00001   0.00000  -0.00012  -0.00012   2.09373
   A14        2.10162   0.00001   0.00000   0.00010   0.00010   2.10172
   A15        2.05875  -0.00001   0.00000  -0.00007  -0.00007   2.05868
   A16        2.10424  -0.00000   0.00000  -0.00007  -0.00007   2.10417
   A17        2.12020   0.00002   0.00000   0.00014   0.00014   2.12034
    D1        0.00000   0.00000   0.00000  -0.00000   0.00000   0.00000
    D2        3.14159  -0.00000   0.00000   0.00000   0.00000   3.14159
    D3        3.14159  -0.00000   0.00000  -0.00000   0.00000   3.14159
    D4        0.00000  -0.00000   0.00000  -0.00000   0.00000   0.00000
    D5       -0.00000  -0.00000   0.00000   0.00000   0.00000   0.00000
    D6        3.14159   0.00000   0.00000  -0.00000   0.00000   3.14159
    D7        3.14159   0.00000   0.00000  -0.00000   0.00000   3.14159
    D8        0.00000   0.00000   0.00000   0.00000   0.00000   0.00000
    D9       -0.00000   0.00000   0.00000   0.00000   0.00000   0.00000
   D10        3.14159   0.00000   0.00000   0.00000   0.00000   3.14159
   D11        0.00000   0.00000   0.00000   0.00000   0.00000   0.00000
   D12        3.14159  -0.00000   0.00000   0.00000   0.00000   3.14159
   D13        3.14159  -0.00000   0.00000  -0.00000   0.00000   3.14159
   D14       -0.00000   0.00000   0.00000   0.00000   0.00000   0.00000
   D15        0.00000  -0.00000   0.00000   0.00000   0.00000   0.00000
   D16        3.14159   0.00000   0.00000  -0.00000   0.00000   3.14159
   D17        3.14159  -0.00000   0.00000   0.00000   0.00000   3.14159
   D18       -0.00000   0.00000   0.00000  -0.00000   0.00000   0.00000
   D19       -0.00000   0.00000   0.00000  -0.00000   0.00000   0.00000
   D20        3.14159  -0.00000   0.00000   0.00000   0.00000   3.14159
   D21        3.14159   0.00000   0.00000  -0.00000   0.00000   3.14159
   D22       -0.00000  -0.00000   0.00000   0.00000   0.00000   0.00000
         Item               Value     Threshold  Converged?
 Maximum Force            0.000060     0.000450     YES
 RMS     Force            0.000019     0.000300     YES
 Maximum Displacement     0.000347     0.001800     YES
 RMS     Displacement     0.000101     0.001200     YES
 Predicted change in Energy=-2.884457D-08
 Optimization completed.
    -- Stationary point found.
                           ----------------------------
                           !   Optimized Parameters   !
                           ! (Angstroms and Degrees)  !
 --------------------------                            --------------------------
 ! Name  Definition              Value          Derivative Info.                !
 --------------------------------------------------------------------------------
 ! R1    R(1,3)                  1.3462         -DE/DX =    0.0                 !
 ! R2    R(1,8)                  0.9642         -DE/DX =    0.0                 !
 ! R3    R(2,3)                  1.3155         -DE/DX =   -0.0001              !
 ! R4    R(2,5)                  1.3324         -DE/DX =    0.0                 !
 ! R5    R(3,4)                  1.3923         -DE/DX =   -0.0001              !
 ! R6    R(4,6)                  1.3746         -DE/DX =    0.0                 !
 ! R7    R(4,9)                  1.0789         -DE/DX =    0.0                 !
 ! R8    R(5,7)                  1.3771         -DE/DX =   -0.0001              !
 ! R9    R(5,10)                 1.0826         -DE/DX =    0.0                 !
 ! R10   R(6,7)                  1.3901         -DE/DX =   -0.0001              !
 ! R11   R(6,11)                 1.0812         -DE/DX =    0.0                 !
 ! R12   R(7,12)                 1.0792         -DE/DX =    0.0                 !
 ! A1    A(3,1,8)              106.888          -DE/DX =    0.0                 !
 ! A2    A(3,2,5)              117.926          -DE/DX =    0.0                 !
 ! A3    A(1,3,2)              117.4996         -DE/DX =    0.0                 !
 ! A4    A(1,3,4)              118.6444         -DE/DX =    0.0                 !
 ! A5    A(2,3,4)              123.8559         -DE/DX =    0.0                 !
 ! A6    A(3,4,6)              117.4202         -DE/DX =    0.0                 !
 ! A7    A(3,4,9)              119.9583         -DE/DX =    0.0                 !
 ! A8    A(6,4,9)              122.6215         -DE/DX =    0.0                 !
 ! A9    A(2,5,7)              123.2231         -DE/DX =    0.0                 !
 ! A10   A(2,5,10)             115.9287         -DE/DX =    0.0                 !
 ! A11   A(7,5,10)             120.8483         -DE/DX =    0.0                 !
 ! A12   A(4,6,7)              119.6173         -DE/DX =    0.0                 !
 ! A13   A(4,6,11)             119.9685         -DE/DX =    0.0                 !
 ! A14   A(7,6,11)             120.4142         -DE/DX =    0.0                 !
 ! A15   A(5,7,6)              117.9575         -DE/DX =    0.0                 !
 ! A16   A(5,7,12)             120.5641         -DE/DX =    0.0                 !
 ! A17   A(6,7,12)             121.4784         -DE/DX =    0.0                 !
 ! D1    D(8,1,3,2)              0.0            -DE/DX =    0.0                 !
 ! D2    D(8,1,3,4)            180.0            -DE/DX =    0.0                 !
 ! D3    D(5,2,3,1)            180.0            -DE/DX =    0.0                 !
 ! D4    D(5,2,3,4)              0.0            -DE/DX =    0.0                 !
 ! D5    D(3,2,5,7)              0.0            -DE/DX =    0.0                 !
 ! D6    D(3,2,5,10)           180.0            -DE/DX =    0.0                 !
 ! D7    D(1,3,4,6)            180.0            -DE/DX =    0.0                 !
 ! D8    D(1,3,4,9)              0.0            -DE/DX =    0.0                 !
 ! D9    D(2,3,4,6)              0.0            -DE/DX =    0.0                 !
 ! D10   D(2,3,4,9)            180.0            -DE/DX =    0.0                 !
 ! D11   D(3,4,6,7)              0.0            -DE/DX =    0.0                 !
 ! D12   D(3,4,6,11)           180.0            -DE/DX =    0.0                 !
 ! D13   D(9,4,6,7)            180.0            -DE/DX =    0.0                 !
 ! D14   D(9,4,6,11)             0.0            -DE/DX =    0.0                 !
 ! D15   D(2,5,7,6)              0.0            -DE/DX =    0.0                 !
 ! D16   D(2,5,7,12)           180.0            -DE/DX =    0.0                 !
 ! D17   D(10,5,7,6)           180.0            -DE/DX =    0.0                 !
 ! D18   D(10,5,7,12)            0.0            -DE/DX =    0.0                 !
 ! D19   D(4,6,7,5)              0.0            -DE/DX =    0.0                 !
 ! D20   D(4,6,7,12)           180.0            -DE/DX =    0.0                 !
 ! D21   D(11,6,7,5)           180.0            -DE/DX =    0.0                 !
 ! D22   D(11,6,7,12)            0.0            -DE/DX =    0.0                 !
 --------------------------------------------------------------------------------
 GradGradGradGradGradGradGradGradGradGradGradGradGradGradGradGradGradGrad

 1\1\GINC-T1606\Freq\RCAM-B3LYP\Gen\C5H5N1O1\SC51754\19-Jun-2021\0\\#N 
 Geom=AllCheck Guess=TCheck SCRF=Check GenChk RCAM-B3LYP/ChkBas Freq\\2
 HY_CAM-B3LYP_pc2_optfreq\\0,1\O,1.8206530862,-0.650191669,0.\N,-0.4316
 17079,-0.9750275684,0.\C,0.5781673924,-0.1319425929,0.\C,0.4325580272,
 1.2527195929,0.\C,-1.6650759103,-0.4712854817,0.\C,-0.8471574824,1.754
 6754889,0.\C,-1.9280293471,0.8804778658,0.\H,1.7239932892,-1.609565042
 7,0.\H,1.3058245457,1.8862860941,0.\H,-2.4714268319,-1.1936737102,0.\H
 ,-1.0079217261,2.823813011,0.\H,-2.9449679639,1.241714012,0.\\Version=
 EM64L-G09RevE.01\State=1-A'\HF=-323.5003133\RMSD=9.223e-10\RMSF=2.382e
 -05\ZeroPoint=0.0945555\Thermal=0.0996926\Dipole=-0.3960893,0.3824947,
 0.\DipoleDeriv=-1.3422566,0.5669238,0.,0.6022153,-0.5327933,0.,0.,0.,-
 0.3877893,-0.7792117,0.3254534,0.,-0.1375981,-0.507864,0.,0.,0.,-0.289
 2657,1.4923425,-0.5712625,0.,-0.7485601,0.621438,0.,0.,0.,0.2229411,-0
 .3099875,0.0451521,0.,0.5315266,-0.2340968,0.,0.,0.,-0.155627,0.339875
 2,-0.2088637,0.,0.1877841,0.4868209,0.,0.,0.,-0.0040786,0.4408172,0.08
 33272,0.,0.0233155,0.2230811,0.,0.,0.,-0.0889009,-0.1659264,-0.0599147
 ,0.,-0.2867164,-0.4145311,0.,0.,0.,-0.1646461,0.330214,-0.1304548,0.,-
 0.0937147,0.2959339,0.,0.,0.,0.3241015,0.0073454,-0.0505013,0.,-0.0544
 452,0.0449225,0.,0.,0.,0.1541387,-0.0415982,-0.0577084,0.,-0.0874698,0
 .0181025,0.,0.,0.,0.1070966,0.0838013,0.0202198,0.,0.022126,-0.0612125
 ,0.,0.,0.,0.1266939,-0.055415,0.037629,0.,0.0415368,0.0601988,0.,0.,0.
 ,0.1553358\Polar=81.8926314,-3.5587404,74.1931274,0.,0.,37.8963627\Pol
 arDeriv=4.9792566,-0.8533668,-0.7774347,0.,0.,0.3271315,3.8738409,-1.2
 183272,4.7669419,0.,0.,0.3293169,0.,0.,0.,1.8613039,-0.2408088,0.,-5.1
 330327,1.473553,-0.921581,0.,0.,0.1984435,-1.3381198,0.8535963,-8.0818
 52,0.,0.,-1.4653726,0.,0.,0.,-0.2159225,-2.1676831,0.,9.0300276,-2.927
 2199,4.9442924,0.,0.,1.5434507,-3.5280569,1.1526203,-1.7890357,0.,0.,-
 0.9430431,0.,0.,0.,2.6224432,-1.4349275,0.,-0.425146,1.3306126,2.77499
 44,0.,0.,1.2870914,2.2231162,-2.4511443,1.5616827,0.,0.,1.1037655,0.,0
 .,0.,3.3351859,2.3808748,0.,3.012609,-0.5850036,0.6571464,0.,0.,-1.047
 6662,-4.5682165,0.6491261,-4.6160782,0.,0.,-1.7337514,0.,0.,0.,-2.1845
 114,-3.4432532,0.,0.6256484,-3.9828072,-2.5174553,0.,0.,-0.4375417,2.6
 255288,-0.1626989,-0.3799146,0.,0.,1.5523784,0.,0.,0.,-0.8337708,3.467
 5228,0.,-1.5738019,2.2773583,-0.9701743,0.,0.,-1.4901775,1.811448,1.57
 5679,4.5331425,0.,0.,1.0753777,0.,0.,0.,-4.5395457,1.9400617,0.,0.4573
 308,-0.4271786,-0.1426155,0.,0.,0.1326282,-3.9143014,3.661439,-7.51064
 6,0.,0.,-0.6212702,0.,0.,0.,0.6504306,-1.1590403,0.,6.4642461,3.578959
 5,2.8172047,0.,0.,0.5011276,3.2700357,3.0571891,3.6978584,0.,0.,0.3408
 117,0.,0.,0.,0.2255529,0.2467371,0.,-6.6699579,-3.9066718,-2.9740077,0
 .,0.,-0.4356132,-3.708259,-3.4941122,-4.417277,0.,0.,-0.3779128,0.,0.,
 0.,-0.6341713,-0.1726713,0.,-0.5913903,1.3005256,-1.2604576,0.,0.,-0.0
 50144,0.8624199,-1.5256477,10.6095937,0.,0.,0.5579405,0.,0.,0.,-0.0431
 047,0.6862738,0.,-10.1757896,2.7212389,-1.6299118,0.,0.,-0.5287303,2.3
 905641,-2.0977194,1.6255842,0.,0.,0.1817594,0.,0.,0.,-0.2438901,-0.103
 0858,0.\HyperPolar=-141.7954724,66.5630525,3.948409,-6.4322468,0.,0.,0
 .,-17.8459646,19.4658655,0.\PG=CS [SG(C5H5N1O1)]\NImag=0\\0.42399764,-
 0.03814394,0.65676097,0.,0.,0.03650865,-0.08461419,-0.03628588,0.,0.71
 423592,-0.00245086,0.02247265,0.,0.03389738,0.42760174,0.,0.,0.0074275
 6,0.,0.,0.09397504,-0.27215860,0.10123493,0.,-0.25211614,-0.12097761,0
 .,0.72998454,0.05359459,-0.14816265,0.,-0.07475059,-0.24582864,0.,-0.0
 1716795,0.74561632,0.,0.,-0.05354146,0.,0.,-0.07519558,0.,0.,0.1932462
 6,-0.01396266,0.05868018,0.,0.04740873,-0.02508842,0.,-0.12977988,-0.0
 3726778,0.,0.78296148,0.02169984,-0.03098413,0.,-0.08730813,-0.0412410
 4,0.,0.04339116,-0.29958491,0.,0.03477055,0.69259442,0.,0.,0.00963770,
 0.,0.,0.02120055,0.,0.,-0.08010256,0.,0.,0.12914359,0.00419689,0.00562
 091,0.,-0.31732709,0.09804283,0.,-0.09582093,-0.06783141,0.,-0.0314889
 6,0.04661687,0.,0.73000887,-0.00119931,-0.00932446,0.,0.06226263,-0.16
 029989,0.,0.00103030,0.07594614,0.,0.03463069,-0.05298237,0.,0.0543012
 8,0.73666015,0.,0.,0.01080096,0.,0.,-0.06730655,0.,0.,-0.00291567,0.,0
 .,-0.00584235,0.,0.,0.16675689,0.00489301,-0.01413698,0.,-0.08856293,-
 0.01245742,0.,0.02642349,0.10893007,0.,-0.34485178,0.04510353,0.,0.064
 66552,-0.07691291,0.,0.69141145,-0.00249295,-0.00767927,0.,-0.01830204
 ,0.00013068,0.,0.04446811,-0.00246393,0.,0.11445392,-0.17160032,0.,-0.
 01658794,-0.04782848,0.,-0.02564661,0.76277143,0.,0.,0.00466306,0.,0.,
 -0.00826011,0.,0.,0.00338477,0.,0.,-0.06217926,0.,0.,0.00900542,0.,0.,
 0.15160902,-0.00766513,0.00525032,0.,0.00609321,0.04196711,0.,-0.00454
 710,-0.02442253,0.,-0.05600524,0.00594270,0.,-0.14638919,0.06834735,0.
 ,-0.25433787,-0.13152212,0.,0.76277433,0.00120641,0.01000389,0.,0.1139
 7498,-0.00536575,0.,-0.03769630,-0.08684451,0.,-0.04236070,0.07314973,
 0.,-0.00958756,-0.34349441,0.,-0.05924499,-0.21483105,0.,-0.03983597,0
 .68807706,0.,0.,-0.00150044,0.,0.,0.02381290,0.,0.,-0.00949393,0.,0.,0
 .00839016,0.,0.,-0.07289309,0.,0.,-0.06751020,0.,0.,0.13073137,-0.0540
 8908,-0.08328416,0.,0.00588418,-0.00086750,0.,-0.00011919,0.05307218,0
 .,-0.00716100,0.00197235,0.,-0.00265463,0.00003048,0.,0.00190658,0.001
 70648,0.,0.00006128,-0.00181848,0.,0.05614054,-0.03301374,-0.49515808,
 0.,-0.00688710,0.00107603,0.,0.01018345,-0.02940858,0.,0.00167008,0.00
 295967,0.,-0.00069001,-0.00008573,0.,0.00057709,-0.00097915,0.,-0.0010
 3674,-0.00002327,0.,0.02935905,0.52136870,0.,0.,-0.01062079,0.,0.,-0.0
 0346989,0.,0.,0.00122443,0.,0.,0.00327854,0.,0.,-0.00069728,0.,0.,0.00
 141685,0.,0.,0.00052210,0.,0.,0.00965324,0.00064009,-0.00012499,0.,0.0
 0186290,0.00213251,0.,0.00546323,0.00334606,0.,-0.24642907,-0.13890949
 ,0.,-0.00027326,0.00068498,0.,-0.01703817,-0.01885080,0.,-0.00325435,0
 .00361309,0.,0.00003453,-0.00024415,0.,0.25856287,0.00002867,0.0019806
 3,0.,-0.00009183,-0.00762617,0.,-0.02864803,-0.01030277,0.,-0.13697843
 ,-0.16308710,0.,0.00250595,-0.00078322,0.,0.01121341,0.01281378,0.,0.0
 0309164,0.00033662,0.,-0.00000662,0.00019408,0.,0.14914618,0.16516927,
 0.,0.,-0.00200452,0.,0.,0.00577503,0.,0.,0.00242831,0.,0.,-0.03526943,
 0.,0.,-0.00021140,0.,0.,0.00247859,0.,0.,0.00879396,0.,0.,-0.00066401,
 0.,0.,0.02468009,-0.00136331,-0.00056167,0.,-0.03327047,-0.01520159,0.
 ,-0.00281454,0.00165673,0.,-0.00019057,0.00033272,0.,-0.19981977,-0.13
 817708,0.,0.00074778,0.00159898,0.,0.00844825,0.00523882,0.,0.00029103
 ,-0.00014504,0.,0.00002145,-0.00019374,0.,0.22721278,0.00026340,0.0001
 9003,0.,0.01135939,0.01450518,0.,0.00423272,0.00169185,0.,0.00109694,-
 0.00013276,0.,-0.13978723,-0.19422665,0.,0.00214335,-0.00562468,0.,-0.
 02423145,-0.01376461,0.,0.00005850,0.00005434,0.,-0.00007129,0.0000445
 3,0.,0.14569036,0.19729480,0.,0.,0.00039820,0.,0.,-0.00312075,0.,0.,0.
 01048697,0.,0.,-0.00067022,0.,0.,-0.04440041,0.,0.,0.00772573,0.,0.,0.
 00790358,0.,0.,-0.00026605,0.,0.,-0.00166069,0.,0.,0.02781834,0.000021
 58,0.00169439,0.,-0.00106901,0.00002188,0.,-0.00496997,0.00169659,0.,0
 .00108869,0.03017677,0.,-0.00380180,-0.00365130,0.,-0.06829128,0.04066
 659,0.,0.00951686,-0.02491456,0.,-0.00037422,0.00019847,0.,0.00110822,
 -0.00067185,0.,0.00028686,-0.00124049,0.,0.06558377,0.00016934,-0.0007
 7997,0.,-0.00008906,0.00072216,0.,0.00159423,0.00173767,0.,-0.00030193
 ,-0.00693421,0.,-0.00401645,-0.00086690,0.,0.04129032,-0.33646496,0.,0
 .00570648,-0.01408648,0.,0.00009899,0.00001606,0.,0.00021618,0.0008050
 1,0.,0.00035557,-0.00077823,0.,-0.04480492,0.35575413,0.,0.,-0.0003815
 9,0.,0.,-0.00307751,0.,0.,0.00994569,0.,0.,0.00580934,0.,0.,0.00754453
 ,0.,0.,-0.04394857,0.,0.,0.00558641,0.,0.,-0.00037292,0.,0.,-0.0048171
 4,0.,0.,-0.00051939,0.,0.,0.02798406,0.00010375,0.00005689,0.,0.001474
 89,0.00098170,0.,0.00045508,-0.00085596,0.,-0.00158973,-0.00378886,0.,
 -0.00129566,-0.00134711,0.,-0.01696580,0.01050838,0.,-0.31469504,0.091
 42525,0.,0.00007998,0.00002863,0.,-0.00069846,0.00060466,0.,0.00045051
 ,0.00048581,0.,0.00090029,-0.00021875,0.,0.33178018,0.00033857,0.00068
 038,0.,0.00222025,-0.00614694,0.,-0.00164502,-0.00239601,0.,-0.0033050
 9,-0.00215700,0.,0.03141276,-0.00271419,0.,-0.02085886,0.01175594,0.,0
 .09074321,-0.09315720,0.,-0.00032127,-0.00001407,0.,-0.00093828,0.0004
 5535,0.,-0.00059407,0.00074620,0.,0.00082843,0.00087573,0.,-0.09788064
 ,0.09207181,0.,0.,-0.00138734,0.,0.,0.00823932,0.,0.,0.00053277,0.,0.,
 0.00660395,0.,0.,0.00015895,0.,0.,0.00161469,0.,0.,-0.03434282,0.,0.,-
 0.00000422,0.,0.,0.00047122,0.,0.,-0.00369532,0.,0.,-0.00375290,0.,0.,
 0.02556170\\0.00002715,0.00000035,0.,-0.00000871,-0.00006332,0.,0.0000
 1731,-0.00002704,0.,0.00001346,0.00008436,0.,-0.00003253,-0.00003523,0
 .,0.00002558,0.00003314,0.,-0.00004032,0.00000556,0.,-0.00002207,0.000
 00643,0.,0.00001410,-0.00002330,0.,0.00000533,0.00000153,0.,-0.0000059
 1,0.00000451,0.,0.00000661,0.00001302,0.\\\@


 I (ERNEST RUTHERFORD) CAME INTO THE ROOM, WHICH WAS HALF DARK, AND PRESENTLY
 SPOTTED LORD KELVIN IN THE AUDIENCE AND REALIZED I WAS IN TROUBLE AT
 THE LAST PART OF MY SPEECH DEALING THE AGE OF THE EARTH, WHERE MY VIEWS
 CONFLICTED WITH HIS.  TO MY RELIEF KELVIN FELL FAST ASLEEP, BUT AS I CAME
 TO THE IMPORTANT POINT, I SAW THE OLD BIRD SIT UP AND COCK A BALEFUL GLANCE
 AT ME! THEN A SUDDEN INSPIRATION CAME AND I SAID LORD KELVIN HAD LIMITED
 THE AGE OF THE EARTH PROVIDED NO NEW SOURCE WAS DISCOVERED. THAT
 PROPHETIC UTTERANCE REFERS TO WHAT WE ARE NOW CONSIDERING TONIGHT, RADIUM!
 BEHOLD!  THE OLD BOY BEAMED UPON ME.
 Job cpu time:       0 days  1 hours  7 minutes 20.1 seconds.
 File lengths (MBytes):  RWF=     91 Int=      0 D2E=      0 Chk=      7 Scr=      1
 Normal termination of Gaussian 09 at Sat Jun 19 00:19:56 2021.
