 Entering Gaussian System, Link 0=g09
 AtFile(1): pc-2.gbs
            H     0
            S    4   1.00
                  0.754230D+02           0.240650D-02
                  0.113500D+02           0.184870D-01
                  0.259930D+01           0.897420D-01
                  0.735130D+00           0.281110D+00
            S    1   1.00
                  0.231670D+00           0.100000D+01
            S    1   1.00
                  0.741470D-01           0.100000D+01
            P    1   1.00
                  0.160000D+01           0.100000D+01
            P    1   1.00
                  0.450000D+00           0.100000D+01
            D    1   1.00
                  0.125000D+01           0.100000D+01
            ****
            C     0
            S    7   1.00
                  0.785710D+04           0.568250D-03
                  0.117870D+04           0.439150D-02
                  0.268320D+03           0.225040D-01
                  0.759480D+02           0.866530D-01
                  0.245590D+02           0.244050D+00
                  0.862120D+01           0.441480D+00
                  0.312780D+01           0.353320D+00
            S    7   1.00
                  0.117870D+04          -0.594920D-06
                  0.268320D+03          -0.627480D-04
                  0.759480D+02          -0.757730D-03
                  0.245590D+02          -0.733080D-02
                  0.862120D+01          -0.389320D-01
                  0.312780D+01          -0.889080D-01
                  0.822020D+00           0.216890D+00
            S    1   1.00
                  0.330170D+00           0.100000D+01
            S    1   1.00
                  0.114630D+00           0.100000D+01
            P    4   1.00
                  0.337750D+02           0.602940D-02
                  0.767660D+01           0.432280D-01
                  0.223570D+01           0.163010D+00
                  0.764470D+00           0.365040D+00
            P    1   1.00
                  0.262320D+00           0.100000D+01
            P    1   1.00
                  0.846380D-01           0.100000D+01
            D    1   1.00
                  0.140000D+01           0.100000D+01
            D    1   1.00
                  0.450000D+00           0.100000D+01
            F    1   1.00
                  0.950000D+00           0.100000D+01
            ****
            N     0
            S    7   1.00
                  0.111010D+05           0.545700D-03
                  0.166530D+04           0.421810D-02
                  0.379080D+03           0.216450D-01
                  0.107300D+03           0.837760D-01
                  0.347470D+02           0.238810D+00
                  0.122490D+02           0.439940D+00
                  0.447430D+01           0.363640D+00
            S    7   1.00
                  0.166530D+04          -0.150060D-05
                  0.379080D+03          -0.587530D-04
                  0.107300D+03          -0.774530D-03
                  0.347470D+02          -0.721610D-02
                  0.122490D+02          -0.393380D-01
                  0.447430D+01          -0.906110D-01
                  0.124040D+01           0.198820D+00
            S    1   1.00
                  0.487430D+00           0.100000D+01
            S    1   1.00
                  0.164840D+00           0.100000D+01
            P    4   1.00
                  0.479340D+02           0.617060D-02
                  0.109990D+02           0.442600D-01
                  0.324720D+01           0.168250D+00
                  0.111140D+01           0.368480D+00
            P    1   1.00
                  0.379880D+00           0.100000D+01
            P    1   1.00
                  0.120680D+00           0.100000D+01
            D    1   1.00
                  0.180000D+01           0.100000D+01
            D    1   1.00
                  0.550000D+00           0.100000D+01
            F    1   1.00
                  0.102000D+01           0.100000D+01
            ****
            O     0
            S    7   1.00
                  0.147820D+05           0.535190D-03
                  0.221730D+04           0.413750D-02
                  0.504740D+03           0.212450D-01
                  0.142870D+03           0.824530D-01
                  0.463000D+02           0.236710D+00
                  0.163370D+02           0.440390D+00
                  0.598280D+01           0.364650D+00
            S    7   1.00
                  0.221730D+04          -0.192750D-05
                  0.504740D+03          -0.579640D-04
                  0.142870D+03          -0.794940D-03
                  0.463000D+02          -0.731250D-02
                  0.163370D+02          -0.405740D-01
                  0.598280D+01          -0.915940D-01
                  0.167180D+01           0.209400D+00
            S    1   1.00
                  0.646620D+00           0.100000D+01
            S    1   1.00
                  0.216690D+00           0.100000D+01
            P    4   1.00
                  0.604240D+02           0.689490D-02
                  0.139350D+02           0.490050D-01
                  0.415310D+01           0.182550D+00
                  0.141580D+01           0.376330D+00
            P    1   1.00
                  0.475490D+00           0.100000D+01
            P    1   1.00
                  0.145290D+00           0.100000D+01
            D    1   1.00
                  0.220000D+01           0.100000D+01
            D    1   1.00
                  0.650000D+00           0.100000D+01
            F    1   1.00
                  0.110000D+01           0.100000D+01
            ****
 Initial command:
 /public3/home/sc51754/softwares/g09e01/l1.exe "./Gau-55175.inp" -scrdir="./"
 Entering Link 1 = /public3/home/sc51754/softwares/g09e01/l1.exe PID=     55176.
  
 Copyright (c) 1988,1990,1992,1993,1995,1998,2003,2009,2015,
            Gaussian, Inc.  All Rights Reserved.
  
 This is part of the Gaussian(R) 09 program.  It is based on
 the Gaussian(R) 03 system (copyright 2003, Gaussian, Inc.),
 the Gaussian(R) 98 system (copyright 1998, Gaussian, Inc.),
 the Gaussian(R) 94 system (copyright 1995, Gaussian, Inc.),
 the Gaussian 92(TM) system (copyright 1992, Gaussian, Inc.),
 the Gaussian 90(TM) system (copyright 1990, Gaussian, Inc.),
 the Gaussian 88(TM) system (copyright 1988, Gaussian, Inc.),
 the Gaussian 86(TM) system (copyright 1986, Carnegie Mellon
 University), and the Gaussian 82(TM) system (copyright 1983,
 Carnegie Mellon University). Gaussian is a federally registered
 trademark of Gaussian, Inc.
  
 This software contains proprietary and confidential information,
 including trade secrets, belonging to Gaussian, Inc.
  
 This software is provided under written license and may be
 used, copied, transmitted, or stored only in accord with that
 written license.
  
 The following legend is applicable only to US Government
 contracts under FAR:
  
                    RESTRICTED RIGHTS LEGEND
  
 Use, reproduction and disclosure by the US Government is
 subject to restrictions as set forth in subparagraphs (a)
 and (c) of the Commercial Computer Software - Restricted
 Rights clause in FAR 52.227-19.
  
 Gaussian, Inc.
 340 Quinnipiac St., Bldg. 40, Wallingford CT 06492
  
  
 ---------------------------------------------------------------
 Warning -- This program may not be used in any manner that
 competes with the business of Gaussian, Inc. or will provide
 assistance to any competitor of Gaussian, Inc.  The licensee
 of this program is prohibited from giving any competitor of
 Gaussian, Inc. access to this program.  By using this program,
 the user acknowledges that Gaussian, Inc. is engaged in the
 business of creating and licensing software in the field of
 computational chemistry and represents and warrants to the
 licensee that it is not a competitor of Gaussian, Inc. and that
 it will not use this program in any manner prohibited above.
 ---------------------------------------------------------------
  

 Cite this work as:
 Gaussian 09, Revision E.01,
 M. J. Frisch, G. W. Trucks, H. B. Schlegel, G. E. Scuseria, 
 M. A. Robb, J. R. Cheeseman, G. Scalmani, V. Barone, B. Mennucci, 
 G. A. Petersson, H. Nakatsuji, M. Caricato, X. Li, H. P. Hratchian, 
 A. F. Izmaylov, J. Bloino, G. Zheng, J. L. Sonnenberg, M. Hada, 
 M. Ehara, K. Toyota, R. Fukuda, J. Hasegawa, M. Ishida, T. Nakajima, 
 Y. Honda, O. Kitao, H. Nakai, T. Vreven, J. A. Montgomery, Jr., 
 J. E. Peralta, F. Ogliaro, M. Bearpark, J. J. Heyd, E. Brothers, 
 K. N. Kudin, V. N. Staroverov, T. Keith, R. Kobayashi, J. Normand, 
 K. Raghavachari, A. Rendell, J. C. Burant, S. S. Iyengar, J. Tomasi, 
 M. Cossi, N. Rega, J. M. Millam, M. Klene, J. E. Knox, J. B. Cross, 
 V. Bakken, C. Adamo, J. Jaramillo, R. Gomperts, R. E. Stratmann, 
 O. Yazyev, A. J. Austin, R. Cammi, C. Pomelli, J. W. Ochterski, 
 R. L. Martin, K. Morokuma, V. G. Zakrzewski, G. A. Voth, 
 P. Salvador, J. J. Dannenberg, S. Dapprich, A. D. Daniels, 
 O. Farkas, J. B. Foresman, J. V. Ortiz, J. Cioslowski, 
 and D. J. Fox, Gaussian, Inc., Wallingford CT, 2013.
 
 ******************************************
 Gaussian 09:  EM64L-G09RevE.01 30-Nov-2015
                19-Jun-2021 
 ******************************************
 %nprocshared=64
 Will use up to   64 processors via shared memory.
 %mem=128GB
 %chk=2PY_CAM-B3LYP_pc2_optfreq.chk
 ------------------------------
 # opt freq=raman CAM-B3LYP/gen
 ------------------------------
 1/14=-1,18=20,19=15,26=3,38=1/1,3;
 2/9=110,12=2,17=6,18=5,40=1/2;
 3/5=7,11=2,16=1,25=1,30=1,71=1,74=-40/1,2,3;
 4//1;
 5/5=2,38=5/2;
 6/7=2,8=2,9=2,10=2,28=1/1;
 7//1,2,3,16;
 1/14=-1,18=20,19=15,26=3/3(2);
 2/9=110/2;
 99//99;
 2/9=110/2;
 3/5=7,6=1,11=2,16=1,25=1,30=1,71=1,74=-40,82=7/1,2,3;
 4/5=5,16=3,69=1/1;
 5/5=2,38=5/2;
 7//1,2,3,16;
 1/14=-1,18=20,19=15,26=3/3(-5);
 2/9=110/2;
 6/7=2,8=2,9=2,10=2,19=2,28=1/1;
 99/9=1/99;
 -------------------------
 2PY_CAM-B3LYP_pc2_optfreq
 -------------------------
 Symbolic Z-matrix:
 Charge =  0 Multiplicity = 1
 O                     2.282    -0.023     0. 
 N                     0.285    -1.189     0. 
 C                     1.054    -0.034     0. 
 C                     0.288     1.248     0. 
 C                    -1.088    -1.185     0. 
 C                    -1.052     1.217     0. 
 C                    -1.77     -0.034     0. 
 H                     0.753    -2.09      0. 
 H                     0.841     2.179     0. 
 H                    -1.569    -2.154     0. 
 H                    -1.628     2.135     0. 
 H                    -2.853    -0.016     0. 
 

 GradGradGradGradGradGradGradGradGradGradGradGradGradGradGradGradGradGrad
 Berny optimization.
 Initialization pass.
                           ----------------------------
                           !    Initial Parameters    !
                           ! (Angstroms and Degrees)  !
 --------------------------                            --------------------------
 ! Name  Definition              Value          Derivative Info.                !
 --------------------------------------------------------------------------------
 ! R1    R(1,3)                  1.228          estimate D2E/DX2                !
 ! R2    R(2,3)                  1.3876         estimate D2E/DX2                !
 ! R3    R(2,5)                  1.373          estimate D2E/DX2                !
 ! R4    R(2,8)                  1.0153         estimate D2E/DX2                !
 ! R5    R(3,4)                  1.4934         estimate D2E/DX2                !
 ! R6    R(4,6)                  1.3404         estimate D2E/DX2                !
 ! R7    R(4,9)                  1.0829         estimate D2E/DX2                !
 ! R8    R(5,7)                  1.3379         estimate D2E/DX2                !
 ! R9    R(5,10)                 1.0818         estimate D2E/DX2                !
 ! R10   R(6,7)                  1.4424         estimate D2E/DX2                !
 ! R11   R(6,11)                 1.0837         estimate D2E/DX2                !
 ! R12   R(7,12)                 1.0831         estimate D2E/DX2                !
 ! A1    A(3,2,5)              123.4888         estimate D2E/DX2                !
 ! A2    A(3,2,8)              118.8959         estimate D2E/DX2                !
 ! A3    A(5,2,8)              117.6153         estimate D2E/DX2                !
 ! A4    A(1,3,2)              124.1689         estimate D2E/DX2                !
 ! A5    A(1,3,4)              120.3453         estimate D2E/DX2                !
 ! A6    A(2,3,4)              115.4858         estimate D2E/DX2                !
 ! A7    A(3,4,6)              119.5332         estimate D2E/DX2                !
 ! A8    A(3,4,9)              118.4318         estimate D2E/DX2                !
 ! A9    A(6,4,9)              122.0349         estimate D2E/DX2                !
 ! A10   A(2,5,7)              120.8149         estimate D2E/DX2                !
 ! A11   A(2,5,10)             116.2323         estimate D2E/DX2                !
 ! A12   A(7,5,10)             122.9528         estimate D2E/DX2                !
 ! A13   A(4,6,7)              121.1785         estimate D2E/DX2                !
 ! A14   A(4,6,11)             120.781          estimate D2E/DX2                !
 ! A15   A(7,6,11)             118.0405         estimate D2E/DX2                !
 ! A16   A(5,7,6)              119.4988         estimate D2E/DX2                !
 ! A17   A(5,7,12)             121.6001         estimate D2E/DX2                !
 ! A18   A(6,7,12)             118.9011         estimate D2E/DX2                !
 ! D1    D(5,2,3,1)            180.0            estimate D2E/DX2                !
 ! D2    D(5,2,3,4)              0.0            estimate D2E/DX2                !
 ! D3    D(8,2,3,1)              0.0            estimate D2E/DX2                !
 ! D4    D(8,2,3,4)            180.0            estimate D2E/DX2                !
 ! D5    D(3,2,5,7)              0.0            estimate D2E/DX2                !
 ! D6    D(3,2,5,10)           180.0            estimate D2E/DX2                !
 ! D7    D(8,2,5,7)            180.0            estimate D2E/DX2                !
 ! D8    D(8,2,5,10)             0.0            estimate D2E/DX2                !
 ! D9    D(1,3,4,6)            180.0            estimate D2E/DX2                !
 ! D10   D(1,3,4,9)              0.0            estimate D2E/DX2                !
 ! D11   D(2,3,4,6)              0.0            estimate D2E/DX2                !
 ! D12   D(2,3,4,9)            180.0            estimate D2E/DX2                !
 ! D13   D(3,4,6,7)              0.0            estimate D2E/DX2                !
 ! D14   D(3,4,6,11)           180.0            estimate D2E/DX2                !
 ! D15   D(9,4,6,7)            180.0            estimate D2E/DX2                !
 ! D16   D(9,4,6,11)             0.0            estimate D2E/DX2                !
 ! D17   D(2,5,7,6)              0.0            estimate D2E/DX2                !
 ! D18   D(2,5,7,12)           180.0            estimate D2E/DX2                !
 ! D19   D(10,5,7,6)           180.0            estimate D2E/DX2                !
 ! D20   D(10,5,7,12)            0.0            estimate D2E/DX2                !
 ! D21   D(4,6,7,5)              0.0            estimate D2E/DX2                !
 ! D22   D(4,6,7,12)           180.0            estimate D2E/DX2                !
 ! D23   D(11,6,7,5)           180.0            estimate D2E/DX2                !
 ! D24   D(11,6,7,12)            0.0            estimate D2E/DX2                !
 --------------------------------------------------------------------------------
 Trust Radius=3.00D-01 FncErr=1.00D-07 GrdErr=1.00D-06
 Number of steps in this run=     64 maximum allowed number of steps=    100.
 GradGradGradGradGradGradGradGradGradGradGradGradGradGradGradGradGradGrad

                          Input orientation:                          
 ---------------------------------------------------------------------
 Center     Atomic      Atomic             Coordinates (Angstroms)
 Number     Number       Type             X           Y           Z
 ---------------------------------------------------------------------
      1          8           0        2.282000   -0.023000    0.000000
      2          7           0        0.285000   -1.189000    0.000000
      3          6           0        1.054000   -0.034000    0.000000
      4          6           0        0.288000    1.248000    0.000000
      5          6           0       -1.088000   -1.185000    0.000000
      6          6           0       -1.052000    1.217000    0.000000
      7          6           0       -1.770000   -0.034000    0.000000
      8          1           0        0.753000   -2.090000    0.000000
      9          1           0        0.841000    2.179000    0.000000
     10          1           0       -1.569000   -2.154000    0.000000
     11          1           0       -1.628000    2.135000    0.000000
     12          1           0       -2.853000   -0.016000    0.000000
 ---------------------------------------------------------------------
                    Distance matrix (angstroms):
                    1          2          3          4          5
     1  O    0.000000
     2  N    2.312480   0.000000
     3  C    1.228049   1.387583   0.000000
     4  C    2.364630   2.437002   1.493412   0.000000
     5  C    3.564708   1.373006   2.431659   2.795150   0.000000
     6  C    3.557127   2.752527   2.449538   1.340359   2.402270
     7  C    4.052015   2.357340   2.824000   2.424642   1.337881
     8  H    2.571056   1.015296   2.077917   3.370233   2.051416
     9  H    2.631594   3.413585   2.223227   1.082853   3.877826
    10  H    4.401291   2.090105   3.372615   3.875829   1.081814
    11  H    4.465990   3.835172   3.449302   2.111356   3.363629
    12  H    5.135005   3.350071   3.907041   3.385790   2.117023
                    6          7          8          9         10
     6  C    0.000000
     7  C    1.442403   0.000000
     8  H    3.767529   3.254637   0.000000
     9  H    2.123415   3.422673   4.269907   0.000000
    10  H    3.410415   2.129507   2.322882   4.958124   0.000000
    11  H    1.083744   2.173643   4.849720   2.469392   4.289406
    12  H    2.182634   1.083150   4.159893   4.296936   2.493933
                   11         12
    11  H    0.000000
    12  H    2.475364   0.000000
 Stoichiometry    C5H5NO
 Framework group  CS[SG(C5H5NO)]
 Deg. of freedom    21
 Full point group                 CS      NOp   2
 Largest Abelian subgroup         CS      NOp   2
 Largest concise Abelian subgroup C1      NOp   1
                         Standard orientation:                         
 ---------------------------------------------------------------------
 Center     Atomic      Atomic             Coordinates (Angstroms)
 Number     Number       Type             X           Y           Z
 ---------------------------------------------------------------------
      1          8           0        0.023182    2.274142    0.000000
      2          7           0       -1.162572    0.288808    0.000000
      3          6           0        0.000000    1.046311    0.000000
      4          6           0        1.274338    0.267631    0.000000
      5          6           0       -1.172193   -1.084165    0.000000
      6          6           0        1.230046   -1.071996    0.000000
      7          6           0       -0.028016   -1.777550    0.000000
      8          1           0       -2.058885    0.765723    0.000000
      9          1           0        2.210778    0.811368    0.000000
     10          1           0       -2.145917   -1.555528    0.000000
     11          1           0        2.142286   -1.657074    0.000000
     12          1           0       -0.020761   -2.860675    0.000000
 ---------------------------------------------------------------------
 Rotational constants (GHZ):      5.5208968      2.8360543      1.8735976
 General basis read from cards:  (5D, 7F)
 There are   223 symmetry adapted cartesian basis functions of A'  symmetry.
 There are    97 symmetry adapted cartesian basis functions of A"  symmetry.
 There are   190 symmetry adapted basis functions of A'  symmetry.
 There are    90 symmetry adapted basis functions of A"  symmetry.
   280 basis functions,   475 primitive gaussians,   320 cartesian basis functions
    25 alpha electrons       25 beta electrons
       nuclear repulsion energy       275.0774566563 Hartrees.
 NAtoms=   12 NActive=   12 NUniq=   12 SFac= 1.00D+00 NAtFMM=   60 NAOKFM=F Big=F
 Integral buffers will be    131072 words long.
 Raffenetti 2 integral format.
 Two-electron integral symmetry is turned on.
 One-electron integrals computed using PRISM.
 NBasis=   280 RedAO= T EigKep=  2.37D-04  NBF=   190    90
 NBsUse=   280 1.00D-06 EigRej= -1.00D+00 NBFU=   190    90
 ExpMin= 7.41D-02 ExpMax= 1.48D+04 ExpMxC= 5.05D+02 IAcc=2 IRadAn=         4 AccDes= 0.00D+00
 Harris functional with IExCor=20419 and IRadAn=       4 diagonalized for initial guess.
 HarFok:  IExCor=20419 AccDes= 0.00D+00 IRadAn=         4 IDoV= 1 UseB2=F ITyADJ=14
 ICtDFT=  3500011 ScaDFX=  1.000000  1.000000  1.000000  1.000000
 FoFCou: FMM=F IPFlag=           0 FMFlag=      100000 FMFlg1=           0
         NFxFlg=           0 DoJE=T BraDBF=F KetDBF=T FulRan=T
         wScrn=  0.000000 ICntrl=     500 IOpCl=  0 I1Cent=   200000004 NGrid=           0
         NMat0=    1 NMatS0=      1 NMatT0=    0 NMatD0=    1 NMtDS0=    0 NMtDT0=    0
 Petite list used in FoFCou.
 Initial guess orbital symmetries:
       Occupied  (A') (A') (A') (A') (A') (A') (A') (A') (A') (A')
                 (A') (A') (A') (A') (A') (A') (A') (A') (A") (A')
                 (A') (A") (A") (A') (A")
       Virtual   (A") (A') (A") (A') (A') (A') (A') (A") (A') (A')
                 (A") (A') (A') (A") (A") (A') (A') (A') (A") (A')
                 (A') (A") (A') (A') (A') (A') (A') (A') (A') (A')
                 (A") (A') (A') (A') (A") (A') (A') (A') (A') (A')
                 (A') (A') (A') (A") (A') (A') (A') (A") (A") (A")
                 (A') (A") (A') (A') (A") (A') (A') (A') (A') (A")
                 (A') (A') (A") (A') (A") (A') (A') (A") (A") (A')
                 (A") (A') (A') (A") (A') (A") (A') (A") (A') (A")
                 (A') (A') (A') (A") (A") (A') (A') (A') (A") (A")
                 (A') (A') (A") (A') (A') (A') (A') (A') (A") (A')
                 (A') (A') (A') (A") (A') (A') (A") (A') (A') (A')
                 (A") (A') (A') (A') (A') (A') (A") (A') (A') (A')
                 (A") (A') (A') (A") (A') (A") (A") (A") (A') (A")
                 (A') (A') (A") (A') (A") (A') (A') (A") (A') (A')
                 (A') (A') (A") (A') (A") (A') (A') (A') (A') (A')
                 (A') (A") (A") (A") (A") (A') (A") (A") (A') (A')
                 (A") (A') (A") (A') (A') (A") (A') (A") (A') (A')
                 (A") (A') (A') (A") (A") (A') (A') (A") (A") (A")
                 (A') (A") (A') (A") (A") (A') (A') (A") (A") (A')
                 (A') (A") (A') (A") (A') (A") (A') (A') (A") (A')
                 (A') (A') (A") (A') (A") (A') (A') (A") (A') (A')
                 (A") (A') (A') (A") (A') (A") (A') (A") (A') (A')
                 (A") (A') (A") (A') (A") (A') (A') (A') (A") (A')
                 (A') (A') (A') (A") (A') (A') (A") (A') (A') (A')
                 (A') (A') (A") (A') (A') (A') (A') (A') (A') (A')
                 (A') (A') (A') (A') (A')
 The electronic state of the initial guess is 1-A'.
 Keep R1 ints in memory in symmetry-blocked form, NReq=2335173138.
 Requested convergence on RMS density matrix=1.00D-08 within 128 cycles.
 Requested convergence on MAX density matrix=1.00D-06.
 Requested convergence on             energy=1.00D-06.
 No special actions if energy rises.
 Integral accuracy reduced to 1.0D-05 until final iterations.
 Initial convergence to 1.0D-05 achieved.  Increase integral accuracy.
 SCF Done:  E(RCAM-B3LYP) =  -323.495617347     A.U. after   14 cycles
            NFock= 14  Conv=0.78D-08     -V/T= 2.0038

 **********************************************************************

            Population analysis using the SCF density.

 **********************************************************************

 Orbital symmetries:
       Occupied  (A') (A') (A') (A') (A') (A') (A') (A') (A') (A')
                 (A') (A') (A') (A') (A') (A') (A') (A") (A') (A')
                 (A') (A") (A") (A') (A")
       Virtual   (A") (A') (A") (A') (A') (A') (A') (A") (A') (A')
                 (A") (A') (A') (A") (A') (A") (A') (A') (A") (A')
                 (A') (A') (A") (A') (A') (A') (A') (A') (A') (A")
                 (A') (A') (A') (A') (A") (A') (A') (A') (A') (A')
                 (A') (A') (A') (A") (A') (A') (A') (A") (A") (A")
                 (A') (A") (A') (A') (A") (A') (A') (A') (A') (A")
                 (A') (A') (A") (A') (A") (A') (A') (A") (A') (A")
                 (A') (A") (A') (A") (A') (A") (A') (A") (A') (A')
                 (A") (A') (A') (A") (A') (A") (A') (A') (A") (A')
                 (A") (A') (A") (A') (A') (A') (A') (A') (A") (A')
                 (A') (A') (A') (A") (A') (A") (A') (A') (A') (A')
                 (A") (A') (A') (A') (A') (A') (A") (A') (A') (A')
                 (A") (A') (A') (A") (A') (A") (A") (A") (A') (A")
                 (A') (A') (A") (A') (A") (A') (A") (A') (A') (A')
                 (A') (A') (A") (A') (A') (A") (A') (A') (A') (A')
                 (A') (A") (A") (A") (A") (A") (A') (A") (A') (A')
                 (A") (A') (A") (A') (A") (A') (A') (A') (A") (A')
                 (A') (A") (A') (A") (A') (A") (A') (A") (A") (A")
                 (A') (A") (A') (A") (A') (A") (A') (A") (A") (A')
                 (A') (A") (A') (A") (A') (A") (A') (A') (A") (A')
                 (A') (A') (A") (A') (A") (A') (A") (A') (A') (A')
                 (A") (A') (A") (A') (A") (A') (A") (A') (A') (A')
                 (A") (A') (A") (A') (A") (A') (A') (A") (A') (A')
                 (A') (A') (A') (A") (A') (A') (A') (A") (A') (A')
                 (A') (A') (A') (A") (A') (A') (A') (A') (A') (A')
                 (A') (A') (A') (A') (A')
 The electronic state is 1-A'.
 Alpha  occ. eigenvalues --  -19.15609 -14.45432 -10.35959 -10.31501 -10.27585
 Alpha  occ. eigenvalues --  -10.26150 -10.26135  -1.12043  -1.04768  -0.91060
 Alpha  occ. eigenvalues --   -0.84568  -0.73160  -0.72568  -0.63867  -0.58581
 Alpha  occ. eigenvalues --   -0.56630  -0.54045  -0.52154  -0.50076  -0.46189
 Alpha  occ. eigenvalues --   -0.44739  -0.41839  -0.37994  -0.32446  -0.28588
 Alpha virt. eigenvalues --   -0.00471   0.03444   0.04554   0.05864   0.07358
 Alpha virt. eigenvalues --    0.09809   0.10940   0.16475   0.16578   0.18184
 Alpha virt. eigenvalues --    0.18972   0.19390   0.21607   0.22863   0.23012
 Alpha virt. eigenvalues --    0.24296   0.26141   0.27422   0.30568   0.31156
 Alpha virt. eigenvalues --    0.31459   0.32091   0.33341   0.34334   0.35369
 Alpha virt. eigenvalues --    0.37074   0.38899   0.39567   0.43013   0.44897
 Alpha virt. eigenvalues --    0.45186   0.45768   0.49668   0.50420   0.52512
 Alpha virt. eigenvalues --    0.52802   0.55732   0.56879   0.59569   0.63761
 Alpha virt. eigenvalues --    0.65475   0.66779   0.69300   0.69756   0.72128
 Alpha virt. eigenvalues --    0.74781   0.79876   0.80663   0.84514   0.86168
 Alpha virt. eigenvalues --    0.86514   0.88670   0.94883   0.96990   0.98052
 Alpha virt. eigenvalues --    1.00087   1.01790   1.04132   1.05863   1.11985
 Alpha virt. eigenvalues --    1.13465   1.15998   1.17289   1.17777   1.19225
 Alpha virt. eigenvalues --    1.20550   1.23000   1.23823   1.24418   1.29559
 Alpha virt. eigenvalues --    1.30301   1.30563   1.31660   1.33514   1.34407
 Alpha virt. eigenvalues --    1.38825   1.43153   1.46496   1.46926   1.50533
 Alpha virt. eigenvalues --    1.51249   1.52920   1.54108   1.55923   1.61094
 Alpha virt. eigenvalues --    1.61469   1.63803   1.69185   1.70372   1.71494
 Alpha virt. eigenvalues --    1.72149   1.74220   1.77031   1.78065   1.80464
 Alpha virt. eigenvalues --    1.85080   1.86419   1.89565   1.92265   1.94763
 Alpha virt. eigenvalues --    1.97342   2.01631   2.03451   2.07267   2.08715
 Alpha virt. eigenvalues --    2.11886   2.13490   2.18525   2.21275   2.24504
 Alpha virt. eigenvalues --    2.28057   2.30063   2.32820   2.33012   2.37033
 Alpha virt. eigenvalues --    2.42682   2.56263   2.65117   2.70171   2.90373
 Alpha virt. eigenvalues --    2.92337   2.96336   2.98543   3.01035   3.20954
 Alpha virt. eigenvalues --    3.23215   3.26414   3.27838   3.30181   3.30788
 Alpha virt. eigenvalues --    3.31613   3.37142   3.37507   3.42464   3.44035
 Alpha virt. eigenvalues --    3.49231   3.54248   3.55610   3.59458   3.63150
 Alpha virt. eigenvalues --    3.65377   3.68421   3.71846   3.73080   3.73798
 Alpha virt. eigenvalues --    3.74473   3.76682   3.84055   3.90279   3.94846
 Alpha virt. eigenvalues --    3.96356   3.99089   4.01346   4.01761   4.04626
 Alpha virt. eigenvalues --    4.07401   4.08209   4.10059   4.13696   4.15181
 Alpha virt. eigenvalues --    4.16007   4.18095   4.18813   4.21338   4.22920
 Alpha virt. eigenvalues --    4.23880   4.26998   4.28640   4.29045   4.29047
 Alpha virt. eigenvalues --    4.30705   4.32266   4.32849   4.34624   4.37726
 Alpha virt. eigenvalues --    4.38783   4.38864   4.40628   4.42123   4.46467
 Alpha virt. eigenvalues --    4.46657   4.50682   4.52112   4.52890   4.54466
 Alpha virt. eigenvalues --    4.54837   4.56759   4.57682   4.62423   4.62849
 Alpha virt. eigenvalues --    4.65380   4.66481   4.69445   4.69706   4.73376
 Alpha virt. eigenvalues --    4.78239   4.81080   4.81168   4.89240   4.89534
 Alpha virt. eigenvalues --    4.91234   4.97557   4.98368   5.00855   5.02977
 Alpha virt. eigenvalues --    5.08065   5.15356   5.17300   5.20837   5.23732
 Alpha virt. eigenvalues --    5.28444   5.30992   5.37307   5.37453   5.40539
 Alpha virt. eigenvalues --    5.42617   5.43296   5.44194   5.47945   5.50645
 Alpha virt. eigenvalues --    5.54865   5.58930   5.62666   5.62745   5.64637
 Alpha virt. eigenvalues --    5.70370   5.75789   5.76211   5.77332   5.82154
 Alpha virt. eigenvalues --    5.90119   5.93136   6.01230   6.01967   6.12691
 Alpha virt. eigenvalues --    6.14332   6.21402   6.23633   6.26804   6.32513
 Alpha virt. eigenvalues --    6.37760   6.55892   6.59531   6.59953   6.92170
 Alpha virt. eigenvalues --    7.01456   7.01948   7.29013   9.53236  12.15969
 Alpha virt. eigenvalues --   13.21956  14.63208  17.75929  18.36923  22.62662
          Condensed to atoms (all electrons):
               1          2          3          4          5          6
     1  O    8.029032  -0.106895   0.611391  -0.081609   0.005380   0.008370
     2  N   -0.106895   6.431032   0.372423  -0.043161   0.347245  -0.011303
     3  C    0.611391   0.372423   4.348395   0.402513  -0.045145  -0.041549
     4  C   -0.081609  -0.043161   0.402513   4.983401  -0.030302   0.540708
     5  C    0.005380   0.347245  -0.045145  -0.030302   4.624950  -0.086931
     6  C    0.008370  -0.011303  -0.041549   0.540708  -0.086931   4.798748
     7  C    0.000644  -0.069841  -0.021415  -0.073194   0.637948   0.411943
     8  H    0.009165   0.393256  -0.023261   0.013607  -0.032518  -0.004324
     9  H    0.001493   0.003638  -0.034535   0.451805  -0.000022  -0.041609
    10  H   -0.000766  -0.036555   0.002262  -0.004547   0.430004   0.009102
    11  H   -0.000523  -0.001765   0.005228  -0.031502   0.008072   0.425968
    12  H    0.000019   0.004867  -0.000677   0.006367  -0.031094  -0.033846
               7          8          9         10         11         12
     1  O    0.000644   0.009165   0.001493  -0.000766  -0.000523   0.000019
     2  N   -0.069841   0.393256   0.003638  -0.036555  -0.001765   0.004867
     3  C   -0.021415  -0.023261  -0.034535   0.002262   0.005228  -0.000677
     4  C   -0.073194   0.013607   0.451805  -0.004547  -0.031502   0.006367
     5  C    0.637948  -0.032518  -0.000022   0.430004   0.008072  -0.031094
     6  C    0.411943  -0.004324  -0.041609   0.009102   0.425968  -0.033846
     7  C    4.876207   0.007522   0.006760  -0.036763  -0.039469   0.439496
     8  H    0.007522   0.483616  -0.000200  -0.011512   0.000258  -0.000285
     9  H    0.006760  -0.000200   0.551870   0.000198  -0.006500   0.000017
    10  H   -0.036763  -0.011512   0.000198   0.589604  -0.000223  -0.003906
    11  H   -0.039469   0.000258  -0.006500  -0.000223   0.585820  -0.006577
    12  H    0.439496  -0.000285   0.000017  -0.003906  -0.006577   0.570634
 Mulliken charges:
               1
     1  O   -0.475701
     2  N   -0.282942
     3  C    0.424369
     4  C   -0.134085
     5  C    0.172413
     6  C    0.024722
     7  C   -0.139837
     8  H    0.164677
     9  H    0.067085
    10  H    0.063101
    11  H    0.061213
    12  H    0.054985
 Sum of Mulliken charges =  -0.00000
 Mulliken charges with hydrogens summed into heavy atoms:
               1
     1  O   -0.475701
     2  N   -0.118265
     3  C    0.424369
     4  C   -0.067000
     5  C    0.235514
     6  C    0.085935
     7  C   -0.084852
 Electronic spatial extent (au):  <R**2>=            631.8565
 Charge=             -0.0000 electrons
 Dipole moment (field-independent basis, Debye):
    X=             -1.4934    Y=             -4.2325    Z=              0.0000  Tot=              4.4883
 Quadrupole moment (field-independent basis, Debye-Ang):
   XX=            -31.2336   YY=            -48.4625   ZZ=            -43.3873
   XY=             -0.8205   XZ=              0.0000   YZ=              0.0000
 Traceless Quadrupole moment (field-independent basis, Debye-Ang):
   XX=              9.7942   YY=             -7.4347   ZZ=             -2.3595
   XY=             -0.8205   XZ=              0.0000   YZ=              0.0000
 Octapole moment (field-independent basis, Debye-Ang**2):
  XXX=            -12.2412  YYY=            -31.2250  ZZZ=              0.0000  XYY=             -1.4632
  XXY=              1.6656  XXZ=              0.0000  XZZ=             -1.8014  YZZ=              5.5212
  YYZ=              0.0000  XYZ=              0.0000
 Hexadecapole moment (field-independent basis, Debye-Ang**3):
 XXXX=           -241.8884 YYYY=           -545.2925 ZZZZ=            -48.3848 XXXY=             -3.8388
 XXXZ=              0.0000 YYYX=             -3.8714 YYYZ=             -0.0000 ZZZX=              0.0000
 ZZZY=             -0.0000 XXYY=           -118.3878 XXZZ=            -63.2422 YYZZ=            -96.9955
 XXYZ=              0.0000 YYXZ=              0.0000 ZZXY=             -0.9739
 N-N= 2.750774566563D+02 E-N=-1.305001130879D+03  KE= 3.222723139257D+02
 Symmetry A'   KE= 3.107749538744D+02
 Symmetry A"   KE= 1.149736005129D+01
 Calling FoFJK, ICntrl=      2127 FMM=F ISym2X=1 I1Cent= 0 IOpClX= 0 NMat=1 NMatS=1 NMatT=0.
 ***** Axes restored to original set *****
 -------------------------------------------------------------------
 Center     Atomic                   Forces (Hartrees/Bohr)
 Number     Number              X              Y              Z
 -------------------------------------------------------------------
      1        8          -0.018334427   -0.015350667    0.000000000
      2        7          -0.003683704   -0.001863828    0.000000000
      3        6           0.018291868    0.034604275   -0.000000000
      4        6           0.001102564   -0.024205379    0.000000000
      5        6           0.003806097   -0.001565334    0.000000000
      6        6          -0.008782536   -0.007286589    0.000000000
      7        6          -0.004557624    0.014593984   -0.000000000
      8        1           0.002887168    0.009748307   -0.000000000
      9        1           0.002493657   -0.005916886    0.000000000
     10        1           0.001894082    0.001164572   -0.000000000
     11        1           0.001288863   -0.000562266    0.000000000
     12        1           0.003593991   -0.003360188    0.000000000
 -------------------------------------------------------------------
 Cartesian Forces:  Max     0.034604275 RMS     0.009522844

 GradGradGradGradGradGradGradGradGradGradGradGradGradGradGradGradGradGrad
 Berny optimization.
 FormGI is forming the generalized inverse of G from B-inverse, IUseBI=4.
 Internal  Forces:  Max     0.022225223 RMS     0.006373579
 Search for a local minimum.
 Step number   1 out of a maximum of   64
 All quantities printed in internal units (Hartrees-Bohrs-Radians)
 Mixed Optimization -- RFO/linear search
 Second derivative matrix not updated -- first step.
 ITU=  0
     Eigenvalues ---    0.01300   0.01527   0.01837   0.01952   0.02069
     Eigenvalues ---    0.02158   0.02298   0.02494   0.02602   0.16000
     Eigenvalues ---    0.16000   0.16000   0.16000   0.16000   0.22000
     Eigenvalues ---    0.22000   0.23420   0.25000   0.32350   0.35546
     Eigenvalues ---    0.35616   0.35652   0.35776   0.37986   0.45097
     Eigenvalues ---    0.45980   0.48525   0.55001   0.56595   0.91904
 RFO step:  Lambda=-7.08492297D-03 EMin= 1.29980170D-02
 Linear search not attempted -- first point.
 Iteration  1 RMS(Cart)=  0.03108471 RMS(Int)=  0.00071530
 Iteration  2 RMS(Cart)=  0.00079018 RMS(Int)=  0.00005324
 Iteration  3 RMS(Cart)=  0.00000029 RMS(Int)=  0.00005324
 ClnCor:  largest displacement from symmetrization is 1.07D-10 for atom    11.
 Variable       Old X    -DE/DX   Delta X   Delta X   Delta X     New X
                                 (Linear)    (Quad)   (Total)
    R1        2.32068  -0.01847   0.00000  -0.01994  -0.01994   2.30073
    R2        2.62215  -0.00778   0.00000  -0.01717  -0.01725   2.60490
    R3        2.59460  -0.00296   0.00000  -0.00593  -0.00602   2.58859
    R4        1.91863  -0.00732   0.00000  -0.01598  -0.01598   1.90265
    R5        2.82214  -0.02223   0.00000  -0.06720  -0.06718   2.75496
    R6        2.53291   0.00565   0.00000   0.00991   0.01000   2.54291
    R7        2.04630  -0.00381   0.00000  -0.01049  -0.01049   2.03581
    R8        2.52823   0.00176   0.00000   0.00384   0.00381   2.53204
    R9        2.04433  -0.00189   0.00000  -0.00517  -0.00517   2.03917
   R10        2.72575  -0.01026   0.00000  -0.02428  -0.02421   2.70154
   R11        2.04798  -0.00116   0.00000  -0.00320  -0.00320   2.04478
   R12        2.04686  -0.00365   0.00000  -0.01005  -0.01005   2.03681
    A1        2.15529   0.00549   0.00000   0.02088   0.02072   2.17600
    A2        2.07512  -0.00951   0.00000  -0.05095  -0.05087   2.02425
    A3        2.05277   0.00402   0.00000   0.03007   0.03015   2.08293
    A4        2.16716  -0.01450   0.00000  -0.05399  -0.05396   2.11320
    A5        2.10042   0.02074   0.00000   0.08308   0.08311   2.18354
    A6        2.01561  -0.00625   0.00000  -0.02909  -0.02915   1.98645
    A7        2.08625   0.00813   0.00000   0.03339   0.03350   2.11975
    A8        2.06703  -0.00935   0.00000  -0.04832  -0.04838   2.01865
    A9        2.12991   0.00122   0.00000   0.01493   0.01488   2.14479
   A10        2.10862   0.00023   0.00000   0.00226   0.00215   2.11077
   A11        2.02864  -0.00132   0.00000  -0.00834  -0.00829   2.02035
   A12        2.14593   0.00109   0.00000   0.00608   0.00614   2.15207
   A13        2.11496  -0.00116   0.00000  -0.00306  -0.00290   2.11206
   A14        2.10803  -0.00023   0.00000  -0.00332  -0.00341   2.10462
   A15        2.06019   0.00139   0.00000   0.00639   0.00631   2.06650
   A16        2.08565  -0.00643   0.00000  -0.02437  -0.02432   2.06133
   A17        2.12232  -0.00016   0.00000  -0.00803  -0.00806   2.11427
   A18        2.07522   0.00659   0.00000   0.03240   0.03238   2.10759
    D1        3.14159  -0.00000   0.00000  -0.00000   0.00000   3.14159
    D2       -0.00000  -0.00000   0.00000   0.00000   0.00000   0.00000
    D3       -0.00000  -0.00000   0.00000  -0.00000   0.00000   0.00000
    D4        3.14159  -0.00000   0.00000   0.00000   0.00000   3.14159
    D5        0.00000   0.00000   0.00000  -0.00000  -0.00000   0.00000
    D6        3.14159   0.00000   0.00000   0.00000   0.00000   3.14159
    D7        3.14159   0.00000   0.00000  -0.00000   0.00000   3.14159
    D8        0.00000   0.00000   0.00000   0.00000   0.00000   0.00000
    D9        3.14159   0.00000   0.00000   0.00000   0.00000   3.14159
   D10        0.00000   0.00000   0.00000   0.00000   0.00000   0.00000
   D11        0.00000   0.00000   0.00000   0.00000  -0.00000   0.00000
   D12        3.14159   0.00000   0.00000  -0.00000   0.00000   3.14159
   D13       -0.00000  -0.00000   0.00000  -0.00000   0.00000   0.00000
   D14        3.14159  -0.00000   0.00000  -0.00000   0.00000   3.14159
   D15        3.14159  -0.00000   0.00000  -0.00000   0.00000   3.14159
   D16       -0.00000  -0.00000   0.00000  -0.00000   0.00000   0.00000
   D17       -0.00000  -0.00000   0.00000  -0.00000   0.00000   0.00000
   D18        3.14159  -0.00000   0.00000   0.00000   0.00000   3.14159
   D19        3.14159  -0.00000   0.00000  -0.00000   0.00000   3.14159
   D20       -0.00000  -0.00000   0.00000   0.00000   0.00000   0.00000
   D21        0.00000   0.00000   0.00000   0.00000  -0.00000   0.00000
   D22        3.14159   0.00000   0.00000  -0.00000   0.00000   3.14159
   D23        3.14159   0.00000   0.00000   0.00000   0.00000   3.14159
   D24        0.00000   0.00000   0.00000   0.00000   0.00000   0.00000
         Item               Value     Threshold  Converged?
 Maximum Force            0.022225     0.000450     NO 
 RMS     Force            0.006374     0.000300     NO 
 Maximum Displacement     0.118186     0.001800     NO 
 RMS     Displacement     0.031108     0.001200     NO 
 Predicted change in Energy=-3.636273D-03
 GradGradGradGradGradGradGradGradGradGradGradGradGradGradGradGradGradGrad

                          Input orientation:                          
 ---------------------------------------------------------------------
 Center     Atomic      Atomic             Coordinates (Angstroms)
 Number     Number       Type             X           Y           Z
 ---------------------------------------------------------------------
      1          8           0        2.270189   -0.078238    0.000000
      2          7           0        0.281079   -1.154568    0.000000
      3          6           0        1.054418   -0.013478   -0.000000
      4          6           0        0.280611    1.222073   -0.000000
      5          6           0       -1.088679   -1.167707    0.000000
      6          6           0       -1.064966    1.207850   -0.000000
      7          6           0       -1.788532   -0.025107    0.000000
      8          1           0        0.782862   -2.027459    0.000000
      9          1           0        0.855981    2.132859   -0.000000
     10          1           0       -1.548260   -2.144026    0.000000
     11          1           0       -1.625359    2.133479   -0.000000
     12          1           0       -2.866345   -0.031679    0.000000
 ---------------------------------------------------------------------
                    Distance matrix (angstroms):
                    1          2          3          4          5
     1  O    0.000000
     2  N    2.261647   0.000000
     3  C    1.217495   1.378456   0.000000
     4  C    2.376811   2.376642   1.457863   0.000000
     5  C    3.531138   1.369820   2.434155   2.754271   0.000000
     6  C    3.574533   2.718981   2.446105   1.345652   2.375676
     7  C    4.059069   2.357747   2.842974   2.415950   1.339899
     8  H    2.451857   1.006839   2.032206   3.288117   2.059572
     9  H    2.624678   3.337318   2.155490   1.077302   3.830853
    10  H    4.341432   2.079785   3.363505   3.830848   1.079080
    11  H    4.479619   3.800757   3.433748   2.112671   3.344526
    12  H    5.136746   3.341730   3.920806   3.387511   2.109659
                    6          7          8          9         10
     6  C    0.000000
     7  C    1.429591   0.000000
     8  H    3.725814   3.259062   0.000000
     9  H    2.132060   3.413248   4.160960   0.000000
    10  H    3.386539   2.132498   2.334035   4.906334   0.000000
    11  H    1.082048   2.164745   4.807591   2.481339   4.278200
    12  H    2.186641   1.077833   4.159309   4.305918   2.489852
                   11         12
    11  H    0.000000
    12  H    2.495587   0.000000
 Stoichiometry    C5H5NO
 Framework group  CS[SG(C5H5NO)]
 Deg. of freedom    21
 Full point group                 CS      NOp   2
 Largest Abelian subgroup         CS      NOp   2
 Largest concise Abelian subgroup C1      NOp   1
                         Standard orientation:                         
 ---------------------------------------------------------------------
 Center     Atomic      Atomic             Coordinates (Angstroms)
 Number     Number       Type             X           Y           Z
 ---------------------------------------------------------------------
      1          8           0       -0.079284    2.267703   -0.000000
      2          7           0       -1.131768    0.265872   -0.000000
      3          6           0        0.000000    1.052792    0.000000
      4          6           0        1.244710    0.293805    0.000000
      5          6           0       -1.128538   -1.103944   -0.000000
      6          6           0        1.246567   -1.051846    0.000000
      7          6           0        0.022344   -1.790094    0.000000
      8          1           0       -2.010592    0.757189   -0.000000
      9          1           0        2.148555    0.880017    0.000000
     10          1           0       -2.099295   -1.575160   -0.000000
     11          1           0        2.178826   -1.601137    0.000000
     12          1           0        0.028653   -2.867909    0.000000
 ---------------------------------------------------------------------
 Rotational constants (GHZ):      5.7199812      2.8291983      1.8929256
 Basis read from rwf:  (5D, 7F)
 There are   223 symmetry adapted cartesian basis functions of A'  symmetry.
 There are    97 symmetry adapted cartesian basis functions of A"  symmetry.
 There are   190 symmetry adapted basis functions of A'  symmetry.
 There are    90 symmetry adapted basis functions of A"  symmetry.
   280 basis functions,   475 primitive gaussians,   320 cartesian basis functions
    25 alpha electrons       25 beta electrons
       nuclear repulsion energy       276.8686661604 Hartrees.
 NAtoms=   12 NActive=   12 NUniq=   12 SFac= 1.00D+00 NAtFMM=   60 NAOKFM=F Big=F
 Integral buffers will be    131072 words long.
 Raffenetti 2 integral format.
 Two-electron integral symmetry is turned on.
 One-electron integrals computed using PRISM.
 NBasis=   280 RedAO= T EigKep=  2.30D-04  NBF=   190    90
 NBsUse=   280 1.00D-06 EigRej= -1.00D+00 NBFU=   190    90
 Initial guess from the checkpoint file:  "2PY_CAM-B3LYP_pc2_optfreq.chk"
 B after Tr=     0.000000    0.000000    0.000000
         Rot=    0.999908   -0.000000    0.000000   -0.013531 Ang=  -1.55 deg.
 Initial guess orbital symmetries:
       Occupied  (A') (A') (A') (A') (A') (A') (A') (A') (A') (A')
                 (A') (A') (A') (A') (A') (A') (A') (A") (A') (A')
                 (A') (A") (A") (A') (A")
       Virtual   (A') (A') (A') (A') (A') (A') (A') (A') (A') (A')
                 (A') (A') (A') (A') (A') (A') (A') (A') (A') (A')
                 (A') (A') (A') (A') (A') (A') (A') (A') (A') (A')
                 (A') (A') (A') (A') (A') (A') (A') (A') (A') (A')
                 (A') (A') (A') (A') (A') (A') (A') (A') (A') (A')
                 (A') (A') (A') (A') (A') (A') (A') (A') (A') (A')
                 (A') (A') (A') (A') (A') (A') (A') (A') (A') (A')
                 (A') (A') (A') (A') (A') (A') (A') (A') (A') (A')
                 (A') (A') (A') (A') (A') (A') (A') (A') (A') (A')
                 (A') (A') (A') (A') (A') (A') (A') (A') (A') (A')
                 (A') (A') (A') (A') (A') (A') (A') (A') (A') (A')
                 (A') (A') (A') (A') (A') (A') (A') (A') (A') (A')
                 (A') (A') (A') (A') (A') (A') (A') (A') (A') (A')
                 (A') (A') (A') (A') (A') (A') (A') (A') (A') (A')
                 (A') (A') (A') (A') (A') (A') (A') (A') (A') (A')
                 (A') (A') (A') (A') (A') (A') (A') (A') (A') (A')
                 (A') (A') (A') (A') (A') (A') (A') (A') (A') (A")
                 (A") (A") (A") (A") (A") (A") (A") (A") (A") (A")
                 (A") (A") (A") (A") (A") (A") (A") (A") (A") (A")
                 (A") (A") (A") (A") (A") (A") (A") (A") (A") (A")
                 (A") (A") (A") (A") (A") (A") (A") (A") (A") (A")
                 (A") (A") (A") (A") (A") (A") (A") (A") (A") (A")
                 (A") (A") (A") (A") (A") (A") (A") (A") (A") (A")
                 (A") (A") (A") (A") (A") (A") (A") (A") (A") (A")
                 (A") (A") (A") (A") (A") (A") (A") (A") (A") (A")
                 (A") (A") (A") (A") (A")
 ExpMin= 7.41D-02 ExpMax= 1.48D+04 ExpMxC= 5.05D+02 IAcc=2 IRadAn=         4 AccDes= 0.00D+00
 Harris functional with IExCor=20419 and IRadAn=       4 diagonalized for initial guess.
 HarFok:  IExCor=20419 AccDes= 0.00D+00 IRadAn=         4 IDoV= 1 UseB2=F ITyADJ=14
 ICtDFT=  3500011 ScaDFX=  1.000000  1.000000  1.000000  1.000000
 FoFCou: FMM=F IPFlag=           0 FMFlag=      100000 FMFlg1=           0
         NFxFlg=           0 DoJE=T BraDBF=F KetDBF=T FulRan=T
         wScrn=  0.000000 ICntrl=     500 IOpCl=  0 I1Cent=   200000004 NGrid=           0
         NMat0=    1 NMatS0=      1 NMatT0=    0 NMatD0=    1 NMtDS0=    0 NMtDT0=    0
 Petite list used in FoFCou.
 Keep R1 ints in memory in symmetry-blocked form, NReq=2335173138.
 Requested convergence on RMS density matrix=1.00D-08 within 128 cycles.
 Requested convergence on MAX density matrix=1.00D-06.
 Requested convergence on             energy=1.00D-06.
 No special actions if energy rises.
 Integral accuracy reduced to 1.0D-05 until final iterations.
 Initial convergence to 1.0D-05 achieved.  Increase integral accuracy.
 SCF Done:  E(RCAM-B3LYP) =  -323.499654985     A.U. after   12 cycles
            NFock= 12  Conv=0.62D-08     -V/T= 2.0032
 Calling FoFJK, ICntrl=      2127 FMM=F ISym2X=1 I1Cent= 0 IOpClX= 0 NMat=1 NMatS=1 NMatT=0.
 ***** Axes restored to original set *****
 -------------------------------------------------------------------
 Center     Atomic                   Forces (Hartrees/Bohr)
 Number     Number              X              Y              Z
 -------------------------------------------------------------------
      1        8          -0.000106515   -0.002120960    0.000000000
      2        7          -0.013570741   -0.005400781    0.000000000
      3        6           0.004154511    0.012569737   -0.000000000
      4        6           0.002895432   -0.004989991    0.000000000
      5        6           0.007275290   -0.005185227    0.000000000
      6        6          -0.003713376   -0.003474270    0.000000000
      7        6          -0.000890470    0.008088193   -0.000000000
      8        1           0.002062372    0.000349908   -0.000000000
      9        1           0.000235688    0.001198764   -0.000000000
     10        1           0.000123073   -0.000322383    0.000000000
     11        1           0.001268928    0.000541558   -0.000000000
     12        1           0.000265808   -0.001254547    0.000000000
 -------------------------------------------------------------------
 Cartesian Forces:  Max     0.013570741 RMS     0.004108962

 GradGradGradGradGradGradGradGradGradGradGradGradGradGradGradGradGradGrad
 Berny optimization.
 Using GEDIIS/GDIIS optimizer.
 FormGI is forming the generalized inverse of G from B-inverse, IUseBI=4.
 Internal  Forces:  Max     0.007803724 RMS     0.001864002
 Search for a local minimum.
 Step number   2 out of a maximum of   64
 All quantities printed in internal units (Hartrees-Bohrs-Radians)
 Mixed Optimization -- RFO/linear search
 Update second derivatives using D2CorX and points    1    2
 DE= -4.04D-03 DEPred=-3.64D-03 R= 1.11D+00
 TightC=F SS=  1.41D+00  RLast= 1.63D-01 DXNew= 5.0454D-01 4.8932D-01
 Trust test= 1.11D+00 RLast= 1.63D-01 DXMaxT set to 4.89D-01
 ITU=  1  0
 Use linear search instead of GDIIS.
     Eigenvalues ---    0.01270   0.01523   0.01859   0.01957   0.02072
     Eigenvalues ---    0.02151   0.02303   0.02497   0.02600   0.14663
     Eigenvalues ---    0.16000   0.16000   0.16000   0.16314   0.21388
     Eigenvalues ---    0.22003   0.23016   0.24076   0.30848   0.35541
     Eigenvalues ---    0.35599   0.35747   0.35837   0.37628   0.45088
     Eigenvalues ---    0.46556   0.50969   0.55588   0.57192   0.92889
 RFO step:  Lambda=-5.03046431D-04 EMin= 1.26990220D-02
 Quartic linear search produced a step of  0.13719.
 Iteration  1 RMS(Cart)=  0.00669980 RMS(Int)=  0.00005699
 Iteration  2 RMS(Cart)=  0.00005824 RMS(Int)=  0.00000977
 Iteration  3 RMS(Cart)=  0.00000000 RMS(Int)=  0.00000977
 ClnCor:  largest displacement from symmetrization is 8.99D-13 for atom    11.
 Variable       Old X    -DE/DX   Delta X   Delta X   Delta X     New X
                                 (Linear)    (Quad)   (Total)
    R1        2.30073   0.00001  -0.00274   0.00138  -0.00135   2.29938
    R2        2.60490   0.00780  -0.00237   0.01987   0.01750   2.62240
    R3        2.58859  -0.00613  -0.00083  -0.01330  -0.01414   2.57444
    R4        1.90265   0.00072  -0.00219   0.00297   0.00078   1.90343
    R5        2.75496  -0.00465  -0.00922  -0.01104  -0.02025   2.73471
    R6        2.54291   0.00182   0.00137   0.00284   0.00423   2.54714
    R7        2.03581   0.00114  -0.00144   0.00440   0.00296   2.03877
    R8        2.53204   0.00473   0.00052   0.00906   0.00958   2.54162
    R9        2.03917   0.00024  -0.00071   0.00114   0.00043   2.03960
   R10        2.70154  -0.00210  -0.00332  -0.00440  -0.00771   2.69382
   R11        2.04478  -0.00019  -0.00044  -0.00038  -0.00082   2.04395
   R12        2.03681  -0.00026  -0.00138  -0.00009  -0.00146   2.03535
    A1        2.17600   0.00141   0.00284   0.00590   0.00872   2.18472
    A2        2.02425  -0.00257  -0.00698  -0.01285  -0.01982   2.00444
    A3        2.08293   0.00117   0.00414   0.00695   0.01109   2.09402
    A4        2.11320  -0.00192  -0.00740  -0.00457  -0.01197   2.10122
    A5        2.18354   0.00296   0.01140   0.00709   0.01849   2.20203
    A6        1.98645  -0.00105  -0.00400  -0.00252  -0.00652   1.97994
    A7        2.11975   0.00012   0.00460  -0.00239   0.00224   2.12198
    A8        2.01865   0.00039  -0.00664   0.00700   0.00035   2.01899
    A9        2.14479  -0.00051   0.00204  -0.00461  -0.00258   2.14221
   A10        2.11077  -0.00139   0.00030  -0.00715  -0.00688   2.10389
   A11        2.02035   0.00044  -0.00114   0.00236   0.00123   2.02158
   A12        2.15207   0.00095   0.00084   0.00479   0.00565   2.15772
   A13        2.11206   0.00094  -0.00040   0.00458   0.00421   2.11628
   A14        2.10462  -0.00186  -0.00047  -0.01177  -0.01225   2.09237
   A15        2.06650   0.00093   0.00087   0.00718   0.00804   2.07454
   A16        2.06133  -0.00003  -0.00334   0.00157  -0.00177   2.05956
   A17        2.11427  -0.00127  -0.00111  -0.00820  -0.00930   2.10497
   A18        2.10759   0.00129   0.00444   0.00662   0.01107   2.11866
    D1        3.14159   0.00000   0.00000   0.00000   0.00000   3.14159
    D2       -0.00000   0.00000   0.00000   0.00000   0.00000   0.00000
    D3       -0.00000   0.00000   0.00000   0.00000   0.00000   0.00000
    D4        3.14159   0.00000   0.00000   0.00000   0.00000   3.14159
    D5        0.00000  -0.00000   0.00000  -0.00000   0.00000   0.00000
    D6        3.14159  -0.00000   0.00000  -0.00000   0.00000   3.14159
    D7        3.14159  -0.00000   0.00000  -0.00000   0.00000   3.14159
    D8        0.00000   0.00000   0.00000  -0.00000   0.00000   0.00000
    D9        3.14159  -0.00000   0.00000  -0.00000   0.00000   3.14159
   D10       -0.00000  -0.00000   0.00000  -0.00000   0.00000   0.00000
   D11        0.00000  -0.00000   0.00000  -0.00000   0.00000   0.00000
   D12        3.14159   0.00000   0.00000  -0.00000   0.00000   3.14159
   D13        0.00000  -0.00000   0.00000   0.00000   0.00000   0.00000
   D14        3.14159  -0.00000   0.00000  -0.00000   0.00000   3.14159
   D15        3.14159  -0.00000   0.00000   0.00000   0.00000   3.14159
   D16        0.00000  -0.00000   0.00000   0.00000   0.00000   0.00000
   D17        0.00000   0.00000   0.00000  -0.00000   0.00000   0.00000
   D18        3.14159   0.00000   0.00000   0.00000   0.00000   3.14159
   D19        3.14159  -0.00000   0.00000  -0.00000   0.00000   3.14159
   D20        0.00000  -0.00000   0.00000   0.00000  -0.00000   0.00000
   D21       -0.00000   0.00000   0.00000   0.00000   0.00000   0.00000
   D22        3.14159   0.00000   0.00000  -0.00000   0.00000   3.14159
   D23        3.14159   0.00000   0.00000   0.00000   0.00000   3.14159
   D24        0.00000  -0.00000   0.00000   0.00000  -0.00000   0.00000
         Item               Value     Threshold  Converged?
 Maximum Force            0.007804     0.000450     NO 
 RMS     Force            0.001864     0.000300     NO 
 Maximum Displacement     0.022491     0.001800     NO 
 RMS     Displacement     0.006713     0.001200     NO 
 Predicted change in Energy=-3.202344D-04
 GradGradGradGradGradGradGradGradGradGradGradGradGradGradGradGradGradGrad

                          Input orientation:                          
 ---------------------------------------------------------------------
 Center     Atomic      Atomic             Coordinates (Angstroms)
 Number     Number       Type             X           Y           Z
 ---------------------------------------------------------------------
      1          8           0        2.268091   -0.088075    0.000000
      2          7           0        0.271653   -1.150624    0.000000
      3          6           0        1.054180   -0.004586   -0.000000
      4          6           0        0.282338    1.219545   -0.000000
      5          6           0       -1.090534   -1.170829    0.000000
      6          6           0       -1.065463    1.204216   -0.000000
      7          6           0       -1.791150   -0.022755   -0.000000
      8          1           0        0.787839   -2.015557    0.000000
      9          1           0        0.855453    2.133600   -0.000000
     10          1           0       -1.546297   -2.149187    0.000000
     11          1           0       -1.615002    2.135824   -0.000000
     12          1           0       -2.868107   -0.037570   -0.000000
 ---------------------------------------------------------------------
                    Distance matrix (angstroms):
                    1          2          3          4          5
     1  O    0.000000
     2  N    2.261587   0.000000
     3  C    1.216779   1.387714   0.000000
     4  C    2.377622   2.370193   1.447148   0.000000
     5  C    3.528841   1.362337   2.441295   2.756568   0.000000
     6  C    3.575276   2.707979   2.440100   1.347888   2.375177
     7  C    4.059767   2.351009   2.845388   2.417160   1.344967
     8  H    2.430294   1.007252   2.028531   3.274357   2.059575
     9  H    2.632753   3.335708   2.147401   1.078869   3.834856
    10  H    4.335636   2.074144   3.370726   3.833049   1.079307
    11  H    4.474834   3.789486   3.421387   2.107004   3.347987
    12  H    5.136447   3.331213   3.922426   3.391997   2.108090
                    6          7          8          9         10
     6  C    0.000000
     7  C    1.425510   0.000000
     8  H    3.715059   3.259209   0.000000
     9  H    2.133934   3.413850   4.149707   0.000000
    10  H    3.387701   2.140483   2.337958   4.910262   0.000000
    11  H    1.081613   2.165754   4.796624   2.470456   4.285562
    12  H    2.188963   1.077059   4.156726   4.310323   2.491206
                   11         12
    11  H    0.000000
    12  H    2.508767   0.000000
 Stoichiometry    C5H5NO
 Framework group  CS[SG(C5H5NO)]
 Deg. of freedom    21
 Full point group                 CS      NOp   2
 Largest Abelian subgroup         CS      NOp   2
 Largest concise Abelian subgroup C1      NOp   1
                         Standard orientation:                         
 ---------------------------------------------------------------------
 Center     Atomic      Atomic             Coordinates (Angstroms)
 Number     Number       Type             X           Y           Z
 ---------------------------------------------------------------------
      1          8           0       -0.109004    2.266371   -0.000000
      2          7           0       -1.129324    0.248025   -0.000000
      3          6           0        0.000000    1.054485    0.000000
      4          6           0        1.240095    0.308562    0.000000
      5          6           0       -1.120873   -1.114285   -0.000000
      6          6           0        1.253119   -1.039263    0.000000
      7          6           0        0.041684   -1.790598    0.000000
      8          1           0       -2.004923    0.745904   -0.000000
      9          1           0        2.141893    0.900777    0.000000
     10          1           0       -2.089428   -1.590526   -0.000000
     11          1           0        2.196080   -1.569085    0.000000
     12          1           0        0.049525   -2.867628    0.000000
 ---------------------------------------------------------------------
 Rotational constants (GHZ):      5.7336448      2.8300395      1.8947968
 Basis read from rwf:  (5D, 7F)
 There are   223 symmetry adapted cartesian basis functions of A'  symmetry.
 There are    97 symmetry adapted cartesian basis functions of A"  symmetry.
 There are   190 symmetry adapted basis functions of A'  symmetry.
 There are    90 symmetry adapted basis functions of A"  symmetry.
   280 basis functions,   475 primitive gaussians,   320 cartesian basis functions
    25 alpha electrons       25 beta electrons
       nuclear repulsion energy       277.0162716783 Hartrees.
 NAtoms=   12 NActive=   12 NUniq=   12 SFac= 1.00D+00 NAtFMM=   60 NAOKFM=F Big=F
 Integral buffers will be    131072 words long.
 Raffenetti 2 integral format.
 Two-electron integral symmetry is turned on.
 One-electron integrals computed using PRISM.
 NBasis=   280 RedAO= T EigKep=  2.29D-04  NBF=   190    90
 NBsUse=   280 1.00D-06 EigRej= -1.00D+00 NBFU=   190    90
 Initial guess from the checkpoint file:  "2PY_CAM-B3LYP_pc2_optfreq.chk"
 B after Tr=    -0.000000   -0.000000   -0.000000
         Rot=    0.999987   -0.000000   -0.000000   -0.005124 Ang=  -0.59 deg.
 Initial guess orbital symmetries:
       Occupied  (A') (A') (A') (A') (A') (A') (A') (A') (A') (A')
                 (A') (A') (A') (A') (A') (A') (A') (A") (A') (A')
                 (A') (A") (A") (A') (A")
       Virtual   (A') (A') (A') (A') (A') (A') (A') (A') (A') (A')
                 (A') (A') (A') (A') (A') (A') (A') (A') (A') (A')
                 (A') (A') (A') (A') (A') (A') (A') (A') (A') (A')
                 (A') (A') (A') (A') (A') (A') (A') (A') (A') (A')
                 (A') (A') (A') (A') (A') (A') (A') (A') (A') (A')
                 (A') (A') (A') (A') (A') (A') (A') (A') (A') (A')
                 (A') (A') (A') (A') (A') (A') (A') (A') (A') (A')
                 (A') (A') (A') (A') (A') (A') (A') (A') (A') (A')
                 (A') (A') (A') (A') (A') (A') (A') (A') (A') (A')
                 (A') (A') (A') (A') (A') (A') (A') (A') (A') (A')
                 (A') (A') (A') (A') (A') (A') (A') (A') (A') (A')
                 (A') (A') (A') (A') (A') (A') (A') (A') (A') (A')
                 (A') (A') (A') (A') (A') (A') (A') (A') (A') (A')
                 (A') (A') (A') (A') (A') (A') (A') (A') (A') (A')
                 (A') (A') (A') (A') (A') (A') (A') (A') (A') (A')
                 (A') (A') (A') (A') (A') (A') (A') (A') (A') (A')
                 (A') (A') (A') (A') (A') (A') (A') (A') (A') (A")
                 (A") (A") (A") (A") (A") (A") (A") (A") (A") (A")
                 (A") (A") (A") (A") (A") (A") (A") (A") (A") (A")
                 (A") (A") (A") (A") (A") (A") (A") (A") (A") (A")
                 (A") (A") (A") (A") (A") (A") (A") (A") (A") (A")
                 (A") (A") (A") (A") (A") (A") (A") (A") (A") (A")
                 (A") (A") (A") (A") (A") (A") (A") (A") (A") (A")
                 (A") (A") (A") (A") (A") (A") (A") (A") (A") (A")
                 (A") (A") (A") (A") (A") (A") (A") (A") (A") (A")
                 (A") (A") (A") (A") (A")
 ExpMin= 7.41D-02 ExpMax= 1.48D+04 ExpMxC= 5.05D+02 IAcc=2 IRadAn=         4 AccDes= 0.00D+00
 Harris functional with IExCor=20419 and IRadAn=       4 diagonalized for initial guess.
 HarFok:  IExCor=20419 AccDes= 0.00D+00 IRadAn=         4 IDoV= 1 UseB2=F ITyADJ=14
 ICtDFT=  3500011 ScaDFX=  1.000000  1.000000  1.000000  1.000000
 FoFCou: FMM=F IPFlag=           0 FMFlag=      100000 FMFlg1=           0
         NFxFlg=           0 DoJE=T BraDBF=F KetDBF=T FulRan=T
         wScrn=  0.000000 ICntrl=     500 IOpCl=  0 I1Cent=   200000004 NGrid=           0
         NMat0=    1 NMatS0=      1 NMatT0=    0 NMatD0=    1 NMtDS0=    0 NMtDT0=    0
 Petite list used in FoFCou.
 Keep R1 ints in memory in symmetry-blocked form, NReq=2335173138.
 Requested convergence on RMS density matrix=1.00D-08 within 128 cycles.
 Requested convergence on MAX density matrix=1.00D-06.
 Requested convergence on             energy=1.00D-06.
 No special actions if energy rises.
 Integral accuracy reduced to 1.0D-05 until final iterations.
 Initial convergence to 1.0D-05 achieved.  Increase integral accuracy.
 SCF Done:  E(RCAM-B3LYP) =  -323.500056854     A.U. after   11 cycles
            NFock= 11  Conv=0.66D-08     -V/T= 2.0032
 Calling FoFJK, ICntrl=      2127 FMM=F ISym2X=1 I1Cent= 0 IOpClX= 0 NMat=1 NMatS=1 NMatT=0.
 ***** Axes restored to original set *****
 -------------------------------------------------------------------
 Center     Atomic                   Forces (Hartrees/Bohr)
 Number     Number              X              Y              Z
 -------------------------------------------------------------------
      1        8           0.000709378   -0.000524959    0.000000000
      2        7          -0.005452584   -0.003141826    0.000000000
      3        6           0.001472918    0.003196547   -0.000000000
      4        6           0.002089772    0.000268559   -0.000000000
      5        6           0.003975781   -0.001325462    0.000000000
      6        6          -0.002211380   -0.002059136    0.000000000
      7        6          -0.000327407    0.003061666   -0.000000000
      8        1           0.000801286   -0.000275846    0.000000000
      9        1          -0.000642303    0.000598667   -0.000000000
     10        1          -0.000376674    0.000077942   -0.000000000
     11        1           0.000226038    0.000266470   -0.000000000
     12        1          -0.000264826   -0.000142623    0.000000000
 -------------------------------------------------------------------
 Cartesian Forces:  Max     0.005452584 RMS     0.001626446

 GradGradGradGradGradGradGradGradGradGradGradGradGradGradGradGradGradGrad
 Berny optimization.
 Using GEDIIS/GDIIS optimizer.
 FormGI is forming the generalized inverse of G from B-inverse, IUseBI=4.
 Internal  Forces:  Max     0.003805430 RMS     0.000793132
 Search for a local minimum.
 Step number   3 out of a maximum of   64
 All quantities printed in internal units (Hartrees-Bohrs-Radians)
 Mixed Optimization -- En-DIIS/RFO-DIIS
 Update second derivatives using D2CorX and points    1    2    3
 DE= -4.02D-04 DEPred=-3.20D-04 R= 1.25D+00
 TightC=F SS=  1.41D+00  RLast= 5.25D-02 DXNew= 8.2294D-01 1.5749D-01
 Trust test= 1.25D+00 RLast= 5.25D-02 DXMaxT set to 4.89D-01
 ITU=  1  1  0
 Use linear search instead of GDIIS.
     Eigenvalues ---    0.01262   0.01524   0.01859   0.01958   0.02068
     Eigenvalues ---    0.02143   0.02302   0.02496   0.02599   0.12480
     Eigenvalues ---    0.16000   0.16000   0.16109   0.16696   0.20796
     Eigenvalues ---    0.22390   0.23022   0.23854   0.31678   0.35545
     Eigenvalues ---    0.35598   0.35750   0.35848   0.37637   0.44884
     Eigenvalues ---    0.46052   0.48088   0.54784   0.55747   0.93365
 RFO step:  Lambda=-6.36745025D-05 EMin= 1.26214352D-02
 Quartic linear search produced a step of  0.37436.
 Iteration  1 RMS(Cart)=  0.00320767 RMS(Int)=  0.00001371
 Iteration  2 RMS(Cart)=  0.00001366 RMS(Int)=  0.00000287
 Iteration  3 RMS(Cart)=  0.00000000 RMS(Int)=  0.00000287
 ClnCor:  largest displacement from symmetrization is 6.32D-12 for atom    11.
 Variable       Old X    -DE/DX   Delta X   Delta X   Delta X     New X
                                 (Linear)    (Quad)   (Total)
    R1        2.29938   0.00074  -0.00051   0.00068   0.00017   2.29955
    R2        2.62240   0.00381   0.00655   0.00535   0.01190   2.63430
    R3        2.57444  -0.00244  -0.00529  -0.00285  -0.00815   2.56629
    R4        1.90343   0.00065   0.00029   0.00110   0.00139   1.90482
    R5        2.73471   0.00034  -0.00758   0.00472  -0.00286   2.73186
    R6        2.54714   0.00142   0.00158   0.00257   0.00416   2.55130
    R7        2.03877   0.00017   0.00111  -0.00058   0.00052   2.03929
    R8        2.54162   0.00195   0.00359   0.00185   0.00543   2.54705
    R9        2.03960   0.00009   0.00016   0.00002   0.00018   2.03977
   R10        2.69382  -0.00145  -0.00289  -0.00394  -0.00683   2.68700
   R11        2.04395   0.00011  -0.00031   0.00054   0.00023   2.04418
   R12        2.03535   0.00027  -0.00055   0.00102   0.00047   2.03582
    A1        2.18472  -0.00013   0.00326  -0.00219   0.00107   2.18580
    A2        2.00444  -0.00046  -0.00742  -0.00042  -0.00784   1.99660
    A3        2.09402   0.00059   0.00415   0.00261   0.00677   2.10079
    A4        2.10122  -0.00040  -0.00448  -0.00121  -0.00569   2.09553
    A5        2.20203   0.00069   0.00692   0.00126   0.00818   2.21020
    A6        1.97994  -0.00029  -0.00244  -0.00006  -0.00249   1.97745
    A7        2.12198  -0.00052   0.00084  -0.00201  -0.00116   2.12082
    A8        2.01899   0.00114   0.00013   0.00681   0.00694   2.02593
    A9        2.14221  -0.00062  -0.00097  -0.00480  -0.00577   2.13643
   A10        2.10389   0.00025  -0.00258   0.00295   0.00036   2.10425
   A11        2.02158   0.00025   0.00046   0.00204   0.00251   2.02409
   A12        2.15772  -0.00051   0.00211  -0.00498  -0.00287   2.15485
   A13        2.11628   0.00058   0.00158   0.00193   0.00351   2.11979
   A14        2.09237  -0.00062  -0.00459  -0.00112  -0.00570   2.08667
   A15        2.07454   0.00005   0.00301  -0.00082   0.00219   2.07673
   A16        2.05956   0.00011  -0.00066  -0.00063  -0.00129   2.05827
   A17        2.10497  -0.00020  -0.00348   0.00121  -0.00226   2.10270
   A18        2.11866   0.00009   0.00414  -0.00059   0.00356   2.12222
    D1        3.14159  -0.00000   0.00000  -0.00000   0.00000   3.14159
    D2       -0.00000   0.00000   0.00000  -0.00000   0.00000   0.00000
    D3        0.00000  -0.00000   0.00000  -0.00000  -0.00000   0.00000
    D4        3.14159   0.00000   0.00000  -0.00000   0.00000   3.14159
    D5        0.00000  -0.00000   0.00000   0.00000  -0.00000   0.00000
    D6        3.14159   0.00000   0.00000   0.00000   0.00000   3.14159
    D7        3.14159   0.00000   0.00000   0.00000   0.00000   3.14159
    D8        0.00000   0.00000   0.00000   0.00000  -0.00000   0.00000
    D9        3.14159  -0.00000   0.00000   0.00000   0.00000   3.14159
   D10       -0.00000  -0.00000   0.00000   0.00000   0.00000   0.00000
   D11        0.00000   0.00000   0.00000   0.00000  -0.00000   0.00000
   D12        3.14159   0.00000   0.00000   0.00000   0.00000   3.14159
   D13       -0.00000  -0.00000   0.00000  -0.00000   0.00000   0.00000
   D14        3.14159  -0.00000   0.00000   0.00000   0.00000   3.14159
   D15        3.14159  -0.00000   0.00000   0.00000   0.00000   3.14159
   D16        0.00000   0.00000   0.00000   0.00000  -0.00000   0.00000
   D17       -0.00000  -0.00000   0.00000  -0.00000   0.00000   0.00000
   D18        3.14159  -0.00000   0.00000  -0.00000   0.00000   3.14159
   D19        3.14159  -0.00000   0.00000  -0.00000   0.00000   3.14159
   D20       -0.00000   0.00000   0.00000   0.00000   0.00000   0.00000
   D21       -0.00000   0.00000   0.00000   0.00000   0.00000   0.00000
   D22        3.14159  -0.00000   0.00000  -0.00000   0.00000   3.14159
   D23        3.14159  -0.00000   0.00000  -0.00000   0.00000   3.14159
   D24        0.00000  -0.00000   0.00000  -0.00000   0.00000   0.00000
         Item               Value     Threshold  Converged?
 Maximum Force            0.003805     0.000450     NO 
 RMS     Force            0.000793     0.000300     NO 
 Maximum Displacement     0.011584     0.001800     NO 
 RMS     Displacement     0.003206     0.001200     NO 
 Predicted change in Energy=-6.468199D-05
 GradGradGradGradGradGradGradGradGradGradGradGradGradGradGradGradGradGrad

                          Input orientation:                          
 ---------------------------------------------------------------------
 Center     Atomic      Atomic             Coordinates (Angstroms)
 Number     Number       Type             X           Y           Z
 ---------------------------------------------------------------------
      1          8           0        2.269627   -0.094205    0.000000
      2          7           0        0.268460   -1.152058    0.000000
      3          6           0        1.056255   -0.001994    0.000000
      4          6           0        0.284000    1.220088   -0.000000
      5          6           0       -1.089421   -1.171631    0.000000
      6          6           0       -1.065965    1.201818   -0.000000
      7          6           0       -1.791468   -0.021063   -0.000000
      8          1           0        0.790506   -2.014326    0.000000
      9          1           0        0.849991    2.138897   -0.000000
     10          1           0       -1.548084   -2.148738    0.000000
     11          1           0       -1.612260    2.135471   -0.000000
     12          1           0       -2.868641   -0.038259   -0.000000
 ---------------------------------------------------------------------
                    Distance matrix (angstroms):
                    1          2          3          4          5
     1  O    0.000000
     2  N    2.263564   0.000000
     3  C    1.216871   1.394012   0.000000
     4  C    2.381194   2.372198   1.445636   0.000000
     5  C    3.527613   1.358023   2.443763   2.758008   0.000000
     6  C    3.578526   2.705813   2.439873   1.350088   2.373565
     7  C    4.061753   2.349990   2.847787   2.418269   1.347841
     8  H    2.423771   1.007987   2.029804   3.273834   2.060161
     9  H    2.646151   3.341941   2.150804   1.079146   3.836785
    10  H    4.335438   2.072005   3.375069   3.834778   1.079402
    11  H    4.476662   3.787474   3.419024   2.105642   3.348176
    12  H    5.138572   3.328957   3.925063   3.394492   2.109538
                    6          7          8          9         10
     6  C    0.000000
     7  C    1.421898   0.000000
     8  H    3.713498   3.261853   0.000000
     9  H    2.132839   3.412145   4.153650   0.000000
    10  H    3.385065   2.141550   2.342449   4.912696   0.000000
    11  H    1.081733   2.163968   4.795217   2.462253   4.284690
    12  H    2.188020   1.077310   4.158629   4.309087   2.489577
                   11         12
    11  H    0.000000
    12  H    2.510696   0.000000
 Stoichiometry    C5H5NO
 Framework group  CS[SG(C5H5NO)]
 Deg. of freedom    21
 Full point group                 CS      NOp   2
 Largest Abelian subgroup         CS      NOp   2
 Largest concise Abelian subgroup C1      NOp   1
                         Standard orientation:                         
 ---------------------------------------------------------------------
 Center     Atomic      Atomic             Coordinates (Angstroms)
 Number     Number       Type             X           Y           Z
 ---------------------------------------------------------------------
      1          8           0       -0.121634    2.267180    0.000000
      2          7           0       -1.130605    0.240927    0.000000
      3          6           0        0.000000    1.056403    0.000000
      4          6           0        1.240466    0.314037    0.000000
      5          6           0       -1.117215   -1.117030    0.000000
      6          6           0        1.254966   -1.035974    0.000000
      7          6           0        0.050054   -1.790944    0.000000
      8          1           0       -2.005290    0.741891    0.000000
      9          1           0        2.145267    0.902162    0.000000
     10          1           0       -2.082902   -1.599272    0.000000
     11          1           0        2.201603   -1.559447    0.000000
     12          1           0        0.059007   -2.868216    0.000000
 ---------------------------------------------------------------------
 Rotational constants (GHZ):      5.7314938      2.8276815      1.8935048
 Basis read from rwf:  (5D, 7F)
 There are   223 symmetry adapted cartesian basis functions of A'  symmetry.
 There are    97 symmetry adapted cartesian basis functions of A"  symmetry.
 There are   190 symmetry adapted basis functions of A'  symmetry.
 There are    90 symmetry adapted basis functions of A"  symmetry.
   280 basis functions,   475 primitive gaussians,   320 cartesian basis functions
    25 alpha electrons       25 beta electrons
       nuclear repulsion energy       276.9309918124 Hartrees.
 NAtoms=   12 NActive=   12 NUniq=   12 SFac= 1.00D+00 NAtFMM=   60 NAOKFM=F Big=F
 Integral buffers will be    131072 words long.
 Raffenetti 2 integral format.
 Two-electron integral symmetry is turned on.
 One-electron integrals computed using PRISM.
 NBasis=   280 RedAO= T EigKep=  2.29D-04  NBF=   190    90
 NBsUse=   280 1.00D-06 EigRej= -1.00D+00 NBFU=   190    90
 Initial guess from the checkpoint file:  "2PY_CAM-B3LYP_pc2_optfreq.chk"
 B after Tr=    -0.000000    0.000000    0.000000
         Rot=    0.999998   -0.000000   -0.000000   -0.001971 Ang=  -0.23 deg.
 Initial guess orbital symmetries:
       Occupied  (A') (A') (A') (A') (A') (A') (A') (A') (A') (A')
                 (A') (A') (A') (A') (A') (A') (A') (A") (A') (A')
                 (A') (A") (A") (A') (A")
       Virtual   (A') (A') (A') (A') (A') (A') (A') (A') (A') (A')
                 (A') (A') (A') (A') (A') (A') (A') (A') (A') (A')
                 (A') (A') (A') (A') (A') (A') (A') (A') (A') (A')
                 (A') (A') (A') (A') (A') (A') (A') (A') (A') (A')
                 (A') (A') (A') (A') (A') (A') (A') (A') (A') (A')
                 (A') (A') (A') (A') (A') (A') (A') (A') (A') (A')
                 (A') (A') (A') (A') (A') (A') (A') (A') (A') (A')
                 (A') (A') (A') (A') (A') (A') (A') (A') (A') (A')
                 (A') (A') (A') (A') (A') (A') (A') (A') (A') (A')
                 (A') (A') (A') (A') (A') (A') (A') (A') (A') (A')
                 (A') (A') (A') (A') (A') (A') (A') (A') (A') (A')
                 (A') (A') (A') (A') (A') (A') (A') (A') (A') (A')
                 (A') (A') (A') (A') (A') (A') (A') (A') (A') (A')
                 (A') (A') (A') (A') (A') (A') (A') (A') (A') (A')
                 (A') (A') (A') (A') (A') (A') (A') (A') (A') (A')
                 (A') (A') (A') (A') (A') (A') (A') (A') (A') (A')
                 (A') (A') (A') (A') (A') (A') (A') (A') (A') (A")
[...]
 Cartesian Forces:  Max     0.000111674 RMS     0.000045510
 FormGI is forming the generalized inverse of G from B-inverse, IUseBI=4.

 GradGradGradGradGradGradGradGradGradGradGradGradGradGradGradGradGradGrad
 Berny optimization.
 Internal  Forces:  Max     0.000112192 RMS     0.000027217
 Search for a local minimum.
 Step number   1 out of a maximum of    2
 All quantities printed in internal units (Hartrees-Bohrs-Radians)
 Second derivative matrix not updated -- analytic derivatives used.
 ITU=  0
     Eigenvalues ---    0.00825   0.01144   0.01592   0.01795   0.02010
     Eigenvalues ---    0.02299   0.02741   0.03359   0.04878   0.10428
     Eigenvalues ---    0.10999   0.11249   0.12292   0.12832   0.17335
     Eigenvalues ---    0.20064   0.20651   0.23663   0.32078   0.32461
     Eigenvalues ---    0.36128   0.36739   0.36955   0.37229   0.38700
     Eigenvalues ---    0.42489   0.46976   0.53391   0.56194   0.82000
 Angle between quadratic step and forces=  30.77 degrees.
 Linear search not attempted -- first point.
 Iteration  1 RMS(Cart)=  0.00019318 RMS(Int)=  0.00000005
 Iteration  2 RMS(Cart)=  0.00000005 RMS(Int)=  0.00000000
 ClnCor:  largest displacement from symmetrization is 2.26D-11 for atom     8.
 Variable       Old X    -DE/DX   Delta X   Delta X   Delta X     New X
                                 (Linear)    (Quad)   (Total)
    R1        2.29932  -0.00011   0.00000  -0.00017  -0.00017   2.29915
    R2        2.63673   0.00002   0.00000   0.00011   0.00011   2.63684
    R3        2.56488  -0.00000   0.00000  -0.00003  -0.00003   2.56484
    R4        1.90499  -0.00001   0.00000  -0.00003  -0.00003   1.90496
    R5        2.73206   0.00004   0.00000   0.00011   0.00011   2.73217
    R6        2.55213   0.00003   0.00000   0.00006   0.00006   2.55219
    R7        2.03903  -0.00003   0.00000  -0.00009  -0.00009   2.03894
    R8        2.54751  -0.00002   0.00000  -0.00006  -0.00006   2.54744
    R9        2.04009   0.00001   0.00000   0.00003   0.00003   2.04012
   R10        2.68638   0.00001   0.00000   0.00008   0.00008   2.68646
   R11        2.04443   0.00001   0.00000   0.00004   0.00004   2.04447
   R12        2.03594  -0.00000   0.00000  -0.00001  -0.00001   2.03593
    A1        2.18573  -0.00002   0.00000  -0.00010  -0.00010   2.18563
    A2        1.99649   0.00005   0.00000   0.00035   0.00035   1.99683
    A3        2.10097  -0.00002   0.00000  -0.00025  -0.00025   2.10072
    A4        2.09562   0.00000   0.00000   0.00003   0.00003   2.09566
    A5        2.20997  -0.00000   0.00000  -0.00001  -0.00001   2.20996
    A6        1.97759   0.00000   0.00000  -0.00003  -0.00003   1.97756
    A7        2.11971  -0.00001   0.00000   0.00001   0.00001   2.11972
    A8        2.02893   0.00006   0.00000   0.00047   0.00047   2.02940
    A9        2.13454  -0.00005   0.00000  -0.00048  -0.00048   2.13406
   A10        2.10439   0.00004   0.00000   0.00021   0.00021   2.10460
   A11        2.02597   0.00003   0.00000   0.00030   0.00030   2.02627
   A12        2.15283  -0.00007   0.00000  -0.00051  -0.00051   2.15232
   A13        2.12079   0.00000   0.00000   0.00003   0.00003   2.12082
   A14        2.08564   0.00001   0.00000   0.00005   0.00005   2.08568
   A15        2.07676  -0.00001   0.00000  -0.00008  -0.00008   2.07668
   A16        2.05816  -0.00002   0.00000  -0.00012  -0.00012   2.05804
   A17        2.10291   0.00005   0.00000   0.00040   0.00040   2.10332
   A18        2.12211  -0.00003   0.00000  -0.00028  -0.00028   2.12183
    D1        3.14159   0.00000   0.00000  -0.00000   0.00000   3.14159
    D2        0.00000   0.00000   0.00000   0.00000   0.00000   0.00000
    D3       -0.00000   0.00000   0.00000   0.00000   0.00000   0.00000
    D4        3.14159   0.00000   0.00000   0.00000   0.00000   3.14159
    D5       -0.00000   0.00000   0.00000   0.00000   0.00000   0.00000
    D6        3.14159  -0.00000   0.00000   0.00000   0.00000   3.14159
    D7        3.14159  -0.00000   0.00000  -0.00000   0.00000   3.14159
    D8        0.00000  -0.00000   0.00000  -0.00000   0.00000   0.00000
    D9        3.14159   0.00000   0.00000  -0.00000   0.00000   3.14159
   D10       -0.00000  -0.00000   0.00000   0.00000   0.00000   0.00000
   D11        0.00000   0.00000   0.00000  -0.00000  -0.00000   0.00000
   D12        3.14159   0.00000   0.00000   0.00000   0.00000   3.14159
   D13       -0.00000  -0.00000   0.00000   0.00000   0.00000   0.00000
   D14        3.14159  -0.00000   0.00000   0.00000   0.00000   3.14159
   D15        3.14159  -0.00000   0.00000  -0.00000   0.00000   3.14159
   D16       -0.00000  -0.00000   0.00000  -0.00000   0.00000   0.00000
   D17        0.00000   0.00000   0.00000  -0.00000  -0.00000   0.00000
   D18        3.14159   0.00000   0.00000  -0.00000   0.00000   3.14159
   D19        3.14159   0.00000   0.00000  -0.00000   0.00000   3.14159
   D20       -0.00000   0.00000   0.00000  -0.00000   0.00000   0.00000
   D21       -0.00000   0.00000   0.00000  -0.00000   0.00000   0.00000
   D22        3.14159  -0.00000   0.00000  -0.00000   0.00000   3.14159
   D23        3.14159   0.00000   0.00000   0.00000   0.00000   3.14159
   D24        0.00000  -0.00000   0.00000   0.00000   0.00000   0.00000
         Item               Value     Threshold  Converged?
 Maximum Force            0.000112     0.000450     YES
 RMS     Force            0.000027     0.000300     YES
 Maximum Displacement     0.000784     0.001800     YES
 RMS     Displacement     0.000193     0.001200     YES
 Predicted change in Energy=-1.016751D-07
 Optimization completed.
    -- Stationary point found.
                           ----------------------------
                           !   Optimized Parameters   !
                           ! (Angstroms and Degrees)  !
 --------------------------                            --------------------------
 ! Name  Definition              Value          Derivative Info.                !
 --------------------------------------------------------------------------------
 ! R1    R(1,3)                  1.2167         -DE/DX =   -0.0001              !
 ! R2    R(2,3)                  1.3953         -DE/DX =    0.0                 !
 ! R3    R(2,5)                  1.3573         -DE/DX =    0.0                 !
 ! R4    R(2,8)                  1.0081         -DE/DX =    0.0                 !
 ! R5    R(3,4)                  1.4457         -DE/DX =    0.0                 !
 ! R6    R(4,6)                  1.3505         -DE/DX =    0.0                 !
 ! R7    R(4,9)                  1.079          -DE/DX =    0.0                 !
 ! R8    R(5,7)                  1.3481         -DE/DX =    0.0                 !
 ! R9    R(5,10)                 1.0796         -DE/DX =    0.0                 !
 ! R10   R(6,7)                  1.4216         -DE/DX =    0.0                 !
 ! R11   R(6,11)                 1.0819         -DE/DX =    0.0                 !
 ! R12   R(7,12)                 1.0774         -DE/DX =    0.0                 !
 ! A1    A(3,2,5)              125.2329         -DE/DX =    0.0                 !
 ! A2    A(3,2,8)              114.3902         -DE/DX =    0.0                 !
 ! A3    A(5,2,8)              120.3769         -DE/DX =    0.0                 !
 ! A4    A(1,3,2)              120.0703         -DE/DX =    0.0                 !
 ! A5    A(1,3,4)              126.622          -DE/DX =    0.0                 !
 ! A6    A(2,3,4)              113.3077         -DE/DX =    0.0                 !
 ! A7    A(3,4,6)              121.4506         -DE/DX =    0.0                 !
 ! A8    A(3,4,9)              116.2492         -DE/DX =    0.0001              !
 ! A9    A(6,4,9)              122.3003         -DE/DX =   -0.0001              !
 ! A10   A(2,5,7)              120.5726         -DE/DX =    0.0                 !
 ! A11   A(2,5,10)             116.0793         -DE/DX =    0.0                 !
 ! A12   A(7,5,10)             123.3481         -DE/DX =   -0.0001              !
 ! A13   A(4,6,7)              121.5123         -DE/DX =    0.0                 !
 ! A14   A(4,6,11)             119.4981         -DE/DX =    0.0                 !
 ! A15   A(7,6,11)             118.9896         -DE/DX =    0.0                 !
 ! A16   A(5,7,6)              117.924          -DE/DX =    0.0                 !
 ! A17   A(5,7,12)             120.4881         -DE/DX =    0.0                 !
 ! A18   A(6,7,12)             121.588          -DE/DX =    0.0                 !
 ! D1    D(5,2,3,1)            180.0            -DE/DX =    0.0                 !
 ! D2    D(5,2,3,4)              0.0            -DE/DX =    0.0                 !
 ! D3    D(8,2,3,1)              0.0            -DE/DX =    0.0                 !
 ! D4    D(8,2,3,4)            180.0            -DE/DX =    0.0                 !
 ! D5    D(3,2,5,7)              0.0            -DE/DX =    0.0                 !
 ! D6    D(3,2,5,10)           180.0            -DE/DX =    0.0                 !
 ! D7    D(8,2,5,7)            180.0            -DE/DX =    0.0                 !
 ! D8    D(8,2,5,10)             0.0            -DE/DX =    0.0                 !
 ! D9    D(1,3,4,6)            180.0            -DE/DX =    0.0                 !
 ! D10   D(1,3,4,9)              0.0            -DE/DX =    0.0                 !
 ! D11   D(2,3,4,6)              0.0            -DE/DX =    0.0                 !
 ! D12   D(2,3,4,9)            180.0            -DE/DX =    0.0                 !
 ! D13   D(3,4,6,7)              0.0            -DE/DX =    0.0                 !
 ! D14   D(3,4,6,11)           180.0            -DE/DX =    0.0                 !
 ! D15   D(9,4,6,7)            180.0            -DE/DX =    0.0                 !
 ! D16   D(9,4,6,11)             0.0            -DE/DX =    0.0                 !
 ! D17   D(2,5,7,6)              0.0            -DE/DX =    0.0                 !
 ! D18   D(2,5,7,12)           180.0            -DE/DX =    0.0                 !
 ! D19   D(10,5,7,6)           180.0            -DE/DX =    0.0                 !
 ! D20   D(10,5,7,12)            0.0            -DE/DX =    0.0                 !
 ! D21   D(4,6,7,5)              0.0            -DE/DX =    0.0                 !
 ! D22   D(4,6,7,12)           180.0            -DE/DX =    0.0                 !
 ! D23   D(11,6,7,5)           180.0            -DE/DX =    0.0                 !
 ! D24   D(11,6,7,12)            0.0            -DE/DX =    0.0                 !
 --------------------------------------------------------------------------------
 GradGradGradGradGradGradGradGradGradGradGradGradGradGradGradGradGradGrad

 1\1\GINC-T1606\Freq\RCAM-B3LYP\Gen\C5H5N1O1\SC51754\19-Jun-2021\0\\#N 
 Geom=AllCheck Guess=TCheck SCRF=Check GenChk RCAM-B3LYP/ChkBas Freq\\2
 PY_CAM-B3LYP_pc2_optfreq\\0,1\O,2.2700683116,-0.0940368814,0.\N,0.2681
 536417,-1.1528046829,0.\C,1.0568246749,-0.0017826815,0.\C,0.284851294,
 1.2206036919,0.\C,-1.088983146,-1.1720926908,0.\C,-1.0655393585,1.2012
 036994,0.\C,-1.7910826084,-0.0212744459,0.\H,0.7902326042,-2.015159667
 5,0.\H,0.848264606,2.1408320211,0.\H,-1.5497509511,-2.148395594,0.\H,-
 1.6117162916,2.1350805742,0.\H,-2.8683227769,-0.0381733425,0.\\Version
 =EM64L-G09RevE.01\State=1-A'\HF=-323.5001333\RMSD=1.204e-09\RMSF=4.551
 e-05\ZeroPoint=0.0947311\Thermal=0.0999289\Dipole=-1.6823609,-0.512563
 4,0.\DipoleDeriv=-1.8408069,0.0139386,0.,0.2125427,-0.4469809,0.,0.,0.
 ,-0.4424174,-0.8203665,0.3916772,0.,-0.5576364,-0.375548,0.,0.,0.,-0.2
 365037,2.2639371,0.0251807,0.,-0.120849,0.462201,0.,0.,0.,0.2885355,-0
 .6427281,-0.0710419,0.,0.514501,-0.0578394,0.,0.,0.,-0.1802653,0.45521
 ,-0.6364072,0.,-0.0204475,0.3277805,0.,0.,0.,-0.0070235,0.4888341,0.19
 39596,0.,0.2428916,0.4185815,0.,0.,0.,-0.0733216,-0.1479663,0.1350865,
 0.,-0.2083746,-0.6082387,0.,0.,0.,-0.2211842,0.1481157,-0.0289061,0.,-
 0.0386028,0.245389,0.,0.,0.,0.2818954,0.0401652,-0.0412371,0.,-0.02717
 54,0.0088228,0.,0.,0.,0.1516139,0.0441899,-0.0294107,0.,-0.0433718,-0.
 0052968,0.,0.,0.,0.1439621,0.047123,0.0656359,0.,0.0673283,-0.0345458,
 0.,0.,0.,0.1263436,-0.035707,-0.0184756,0.,-0.0208061,0.0656749,0.,0.,
 0.,0.1683652\Polar=87.9867638,0.3373763,71.4957972,0.,0.,37.6456763\Po
 larDeriv=22.7791798,-1.0676483,-0.0808655,0.,0.,0.8169512,-2.1227593,3
 .3946054,-0.8539774,0.,0.,-0.084654,0.,0.,0.,4.1471672,-0.1091132,0.,-
 8.8691778,1.0761811,-4.7453578,0.,0.,-0.105086,-2.4548735,-1.2048816,-
 0.0015629,0.,0.,-0.7396604,0.,0.,0.,-0.1661599,-1.3044443,0.,-10.57144
 82,2.1737894,3.8184265,0.,0.,1.0594055,9.4810683,2.6581253,2.4778505,0
 .,0.,-0.0772571,0.,0.,0.,1.4751134,-0.4439824,0.,9.5375088,2.3209724,4
 .4398186,0.,0.,1.7911347,-5.4934326,-2.2003033,0.1091942,0.,0.,1.40927
 42,0.,0.,0.,3.260974,3.3312525,0.,10.2426425,-1.7554141,7.1167306,0.,0
 .,0.7035165,-5.4157593,-0.3864714,-9.0465218,0.,0.,-2.7469441,0.,0.,0.
 ,-0.1855357,-4.8100483,0.,-7.8262511,-6.4420373,-9.0009212,0.,0.,-1.82
 48906,0.5095155,-2.1302035,-7.3164694,0.,0.,0.5964792,0.,0.,0.,-3.4245
 684,1.7790525,0.,-3.1950303,3.6542903,-0.6353374,0.,0.,-1.9429819,5.65
 75356,3.2988416,15.4145924,0.,0.,1.6182589,0.,0.,0.,-5.0495388,1.71279
 96,0.,1.8360174,-2.3805789,3.309865,0.,0.,0.2430529,-2.2235014,2.46555
 42,-6.9795633,0.,0.,-0.5447648,0.,0.,0.,0.5752694,-0.7703792,0.,2.8705
 341,2.7375649,3.3316073,0.,0.,0.2667925,2.2505019,3.1639953,7.0700925,
 0.,0.,0.5361228,0.,0.,0.,0.1261505,0.4207875,0.,-2.4196978,-2.8611379,
 -2.9941207,0.,0.,-0.2634865,-2.4871801,-3.4438049,-8.5515114,0.,0.,-0.
 4909323,0.,0.,0.,-0.5740513,-0.1600437,0.,-3.3746474,2.7119432,-3.4650
 577,0.,0.,-0.2191906,2.6184981,-4.1101159,7.3096483,0.,0.,0.6238607,0.
 ,0.,0.,-0.0754217,0.8303503,0.,-11.00963,-0.1679247,-1.0947878,0.,0.,-
 0.5252177,-0.3196133,-1.5053411,0.3682282,0.,0.,-0.099783,0.,0.,0.,-0.
 1093988,-0.4762314,0.\HyperPolar=-147.5914313,45.7956998,39.4868244,11
 .2134075,0.,0.,0.,-35.2769245,10.3044712,0.\PG=CS [SG(C5H5N1O1)]\NImag
 =0\\0.78572951,-0.04245305,0.09749907,0.,0.,0.03469047,-0.07532035,-0.
 07467054,0.,0.77898234,-0.04739205,0.00942724,0.,-0.10813266,0.7587807
 7,0.,0.,0.02037402,0.,0.,0.07787842,-0.65081159,0.05547827,0.,-0.14466
 305,-0.02580428,0.,0.94299317,0.05992424,-0.10897660,0.,0.02200866,-0.
 22165355,0.,-0.08591816,0.56631306,0.,0.,-0.07677071,0.,0.,-0.06314722
 ,0.,0.,0.20762714,-0.05866429,0.05215508,0.,0.05088139,-0.00665915,0.,
 -0.12821520,0.02623062,0.,0.80255582,0.02863308,0.00560496,0.,-0.01248
 719,-0.04350949,0.,0.05083765,-0.22046571,0.,0.07674393,0.66407955,0.,
 0.,0.02310396,0.,0.,0.00690946,0.,0.,-0.08170156,0.,0.,0.12082337,-0.0
 0333727,0.01654842,0.,-0.33233111,0.02279124,0.,-0.02435483,-0.0848699
 5,0.,-0.03901687,0.02081544,0.,0.68737340,-0.00132332,-0.01007266,0.,-
 0.03058602,-0.15130436,0.,-0.02745814,0.03554471,0.,0.02205622,-0.0137
 7595,0.,-0.02411284,0.85470461,0.,0.,0.00519710,0.,0.,-0.04695313,0.,0
 .,-0.00299384,0.,0.,0.00029384,0.,0.,0.14465247,0.01396594,-0.00648598
 ,0.,-0.04025024,-0.00430945,0.,-0.03034419,0.04939375,0.,-0.45396513,-
 0.02542696,0.,0.05666556,-0.01817127,0.,0.77470267,0.01073156,-0.01451
 049,0.,-0.03733094,-0.00726564,0.,0.02915038,0.04513246,0.,0.02157542,
 -0.13971093,0.,0.02318311,-0.06265801,0.,-0.04989210,0.68471906,0.,0.,
 0.00377568,0.,0.,-0.00583227,0.,0.,0.00070597,0.,0.,-0.05815319,0.,0.,
 0.00846616,0.,0.,0.14779447,-0.00568509,-0.00334757,0.,-0.05016940,0.0
 3575724,0.,0.00687093,0.01260808,0.,-0.02441050,-0.03462168,0.,-0.2072
 8307,0.15737239,0.,-0.16776516,-0.09535341,0.,0.78543823,-0.01064328,0
 .01194336,0.,0.07171282,0.01391558,0.,0.00304544,-0.05537415,0.,-0.059
 31381,0.02549404,0.,0.10897638,-0.36225379,0.,-0.04190688,-0.24102767,
 0.,-0.06641111,0.69280501,0.,0.,-0.00011633,0.,0.,0.01323258,0.,0.,-0.
 00805909,0.,0.,0.00810642,0.,0.,-0.06722997,0.,0.,-0.06382539,0.,0.,0.
 12034332,-0.00247142,0.00468434,0.,-0.16790637,0.16291412,0.,0.0215521
 5,-0.01760751,0.,-0.00330485,-0.00290875,0.,-0.01360950,0.03222497,0.,
 0.00078930,0.00012349,0.,-0.00540137,-0.00414199,0.,0.16927010,0.00087
 725,0.00539951,0.,0.16350847,-0.35409350,0.,0.02019804,-0.02432382,0.,
 -0.00336921,-0.00411348,0.,-0.00078960,0.00832531,0.,-0.00268885,-0.00
 135724,0.,-0.00286450,0.00441986,0.,-0.17510572,0.36545134,0.,0.,-0.00
 485320,0.,0.,-0.01695974,0.,0.,0.00370002,0.,0.,0.00433664,0.,0.,-0.00
 536901,0.,0.,-0.00050727,0.,0.,0.00490451,0.,0.,0.01664664,0.00067560,
 -0.00200485,0.,-0.00130197,0.00395043,0.,0.01183040,0.01527598,0.,-0.1
 3427626,-0.12901192,0.,-0.00116762,0.00059582,0.,-0.01149020,-0.028362
 98,0.,-0.00470667,0.00165527,0.,0.00064016,0.00086234,0.,0.13905133,0.
 00125834,0.00314515,0.,0.00273258,-0.00496013,0.,-0.01927504,-0.017557
 53,0.,-0.12703674,-0.27389134,0.,0.00242689,-0.00003539,0.,0.00225467,
 0.00556779,0.,0.00074239,0.00239412,0.,-0.00089988,-0.00097804,0.,0.13
 817087,0.28529457,0.,0.,-0.00229273,0.,0.,0.00433892,0.,0.,0.00317905,
 0.,0.,-0.03510651,0.,0.,-0.00065830,0.,0.,0.00355237,0.,0.,0.00979330,
 0.,0.,-0.00045502,0.,0.,0.02470382,-0.00271644,-0.00175815,0.,-0.01897
 584,-0.03640975,0.,-0.00096828,0.00633279,0.,0.00001047,-0.00009855,0.
 ,-0.10974577,-0.10376629,0.,-0.00177839,0.00292869,0.,0.01345974,0.014
 88880,0.,0.00081514,-0.00030611,0.,0.00009890,-0.00011539,0.,0.1187007
 5,-0.00011701,-0.00019551,0.,0.00124702,0.00457930,0.,0.00147530,0.002
 22614,0.,0.00067137,0.00052287,0.,-0.11017265,-0.30012148,0.,0.0039785
 1,-0.00327442,0.,-0.01397612,-0.01570166,0.,-0.00049316,0.00092717,0.,
 -0.00008814,-0.00000875,0.,0.11797207,0.31113730,0.,0.,-0.00016446,0.,
 0.,0.00287364,0.,0.,0.00506737,0.,0.,-0.00013193,0.,0.,-0.03960660,0.,
 0.,0.00839152,0.,0.,0.00761609,0.,0.,-0.00245100,0.,0.,-0.00117969,0.,
 0.,0.02536777,-0.00136115,0.00177107,0.,-0.00033092,0.00027675,0.,-0.0
 0439530,-0.00302086,0.,-0.01209439,0.03003625,0.,-0.00122118,-0.003535
 85,0.,-0.13139264,0.12084411,0.,0.01237654,-0.01479863,0.,0.00002118,0
 .00001844,0.,0.00111843,-0.00046388,0.,0.00052332,-0.00075162,0.,0.136
 13038,0.00053283,0.00000267,0.,-0.00051229,0.00109558,0.,-0.00167815,0
 .00116315,0.,-0.00134498,0.00458989,0.,-0.00397002,-0.00395952,0.,0.12
 179122,-0.27065036,0.,0.01556981,-0.01747196,0.,0.00002847,0.00003330,
 0.,0.00019064,0.00087545,0.,0.00081502,-0.00091376,0.,-0.13119490,0.28
 420134,0.,0.,-0.00247085,0.,0.,-0.00078210,0.,0.,0.01268395,0.,0.,0.00
 778968,0.,0.,0.00439159,0.,0.,-0.04444411,0.,0.,0.00469377,0.,0.,-0.00
 069744,0.,0.,-0.00634356,0.,0.,-0.00044073,0.,0.,0.02768341,-0.0000034
 5,0.00008297,0.,0.00138553,0.00301756,0.,0.00050580,-0.00035765,0.,0.0
 0049978,-0.00251130,0.,-0.01197174,-0.00329566,0.,-0.00913752,0.002402
 67,0.,-0.35272418,-0.00306300,0.,-0.00039452,-0.00034055,0.,-0.0004720
 9,0.00020519,0.,0.00057639,0.00025443,0.,0.00062573,-0.00022766,0.,0.3
 7111028,-0.00002858,0.00073330,0.,0.00251009,-0.00501179,0.,-0.0000513
 1,-0.00202816,0.,-0.00170874,-0.00482441,0.,0.02917358,0.00560654,0.,-
 0.02853664,0.00503546,0.,-0.00547553,-0.05914275,0.,0.00118164,0.00030
 960,0.,-0.00123346,0.00015409,0.,-0.00048312,0.00082281,0.,0.00081910,
 0.00103422,0.,0.00383298,0.05731109,0.,0.,-0.00047296,0.,0.,0.00806741
 ,0.,0.,-0.00029109,0.,0.,0.00372983,0.,0.,-0.00019031,0.,0.,0.00007606
 ,0.,0.,-0.02945922,0.,0.,0.00170486,0.,0.,0.00046837,0.,0.,-0.00534199
 ,0.,0.,-0.00206361,0.,0.,0.02377264\\0.00011167,-0.00000967,0.,-0.0000
 4120,0.00003172,0.,-0.00010191,0.00002640,0.,-0.00009689,-0.00002213,0
 .,-0.00009913,-0.00004628,0.,0.00000665,-0.00002921,0.,0.00005591,0.00
 010890,0.,0.00003842,0.00001130,0.,0.00006156,-0.00000242,0.,0.0000513
 0,-0.00001817,0.,0.00001360,-0.00000700,0.,0.00000001,-0.00004344,0.\\
 \@


 HICKORY, DICKORY, DOCK
 TWO MICE RAN UP THE CLOCK
 THE CLOCK STRUCK ONE...
 THE OTHER ESCAPED WITH MINOR INJURIES.
 Job cpu time:       0 days  1 hours  7 minutes 17.7 seconds.
 File lengths (MBytes):  RWF=     91 Int=      0 D2E=      0 Chk=      7 Scr=      1
 Normal termination of Gaussian 09 at Sat Jun 19 00:22:31 2021.
