 Entering Gaussian System, Link 0=g09
 AtFile(1): pc-2.gbs
            -H     0
            S    4   1.00
                  0.754230D+02           0.240650D-02
                  0.113500D+02           0.184870D-01
                  0.259930D+01           0.897420D-01
                  0.735130D+00           0.281110D+00
            S    1   1.00
                  0.231670D+00           0.100000D+01
            S    1   1.00
                  0.741470D-01           0.100000D+01
            P    1   1.00
                  0.160000D+01           0.100000D+01
            P    1   1.00
                  0.450000D+00           0.100000D+01
            D    1   1.00
                  0.125000D+01           0.100000D+01
            ****
            -C     0
            S    7   1.00
                  0.785710D+04           0.568250D-03
                  0.117870D+04           0.439150D-02
                  0.268320D+03           0.225040D-01
                  0.759480D+02           0.866530D-01
                  0.245590D+02           0.244050D+00
                  0.862120D+01           0.441480D+00
                  0.312780D+01           0.353320D+00
            S    7   1.00
                  0.117870D+04          -0.594920D-06
                  0.268320D+03          -0.627480D-04
                  0.759480D+02          -0.757730D-03
                  0.245590D+02          -0.733080D-02
                  0.862120D+01          -0.389320D-01
                  0.312780D+01          -0.889080D-01
                  0.822020D+00           0.216890D+00
            S    1   1.00
                  0.330170D+00           0.100000D+01
            S    1   1.00
                  0.114630D+00           0.100000D+01
            P    4   1.00
                  0.337750D+02           0.602940D-02
                  0.767660D+01           0.432280D-01
                  0.223570D+01           0.163010D+00
                  0.764470D+00           0.365040D+00
            P    1   1.00
                  0.262320D+00           0.100000D+01
            P    1   1.00
                  0.846380D-01           0.100000D+01
            D    1   1.00
                  0.140000D+01           0.100000D+01
            D    1   1.00
                  0.450000D+00           0.100000D+01
            F    1   1.00
                  0.950000D+00           0.100000D+01
            ****
            -N     0
            S    7   1.00
                  0.111010D+05           0.545700D-03
                  0.166530D+04           0.421810D-02
                  0.379080D+03           0.216450D-01
                  0.107300D+03           0.837760D-01
                  0.347470D+02           0.238810D+00
                  0.122490D+02           0.439940D+00
                  0.447430D+01           0.363640D+00
            S    7   1.00
                  0.166530D+04          -0.150060D-05
                  0.379080D+03          -0.587530D-04
                  0.107300D+03          -0.774530D-03
                  0.347470D+02          -0.721610D-02
                  0.122490D+02          -0.393380D-01
                  0.447430D+01          -0.906110D-01
                  0.124040D+01           0.198820D+00
            S    1   1.00
                  0.487430D+00           0.100000D+01
            S    1   1.00
                  0.164840D+00           0.100000D+01
            P    4   1.00
                  0.479340D+02           0.617060D-02
                  0.109990D+02           0.442600D-01
                  0.324720D+01           0.168250D+00
                  0.111140D+01           0.368480D+00
            P    1   1.00
                  0.379880D+00           0.100000D+01
            P    1   1.00
                  0.120680D+00           0.100000D+01
            D    1   1.00
                  0.180000D+01           0.100000D+01
            D    1   1.00
                  0.550000D+00           0.100000D+01
            F    1   1.00
                  0.102000D+01           0.100000D+01
            ****
            -O     0
            S    7   1.00
                  0.147820D+05           0.535190D-03
                  0.221730D+04           0.413750D-02
                  0.504740D+03           0.212450D-01
                  0.142870D+03           0.824530D-01
                  0.463000D+02           0.236710D+00
                  0.163370D+02           0.440390D+00
                  0.598280D+01           0.364650D+00
            S    7   1.00
                  0.221730D+04          -0.192750D-05
                  0.504740D+03          -0.579640D-04
                  0.142870D+03          -0.794940D-03
                  0.463000D+02          -0.731250D-02
                  0.163370D+02          -0.405740D-01
                  0.598280D+01          -0.915940D-01
                  0.167180D+01           0.209400D+00
            S    1   1.00
                  0.646620D+00           0.100000D+01
            S    1   1.00
                  0.216690D+00           0.100000D+01
            P    4   1.00
                  0.604240D+02           0.689490D-02
                  0.139350D+02           0.490050D-01
                  0.415310D+01           0.182550D+00
                  0.141580D+01           0.376330D+00
            P    1   1.00
                  0.475490D+00           0.100000D+01
            P    1   1.00
                  0.145290D+00           0.100000D+01
            D    1   1.00
                  0.220000D+01           0.100000D+01
            D    1   1.00
                  0.650000D+00           0.100000D+01
            F    1   1.00
                  0.110000D+01           0.100000D+01
            ****
 Initial command:
 /gpfs/share/home/1801110325/software/g09e01/l1.exe "./Gau-24509.inp" -scrdir="./"
 Entering Link 1 = /gpfs/share/home/1801110325/software/g09e01/l1.exe PID=     24510.
  
 Copyright (c) 1988,1990,1992,1993,1995,1998,2003,2009,2015,
            Gaussian, Inc.  All Rights Reserved.
  
 This is part of the Gaussian(R) 09 program.  It is based on
 the Gaussian(R) 03 system (copyright 2003, Gaussian, Inc.),
 the Gaussian(R) 98 system (copyright 1998, Gaussian, Inc.),
 the Gaussian(R) 94 system (copyright 1995, Gaussian, Inc.),
 the Gaussian 92(TM) system (copyright 1992, Gaussian, Inc.),
 the Gaussian 90(TM) system (copyright 1990, Gaussian, Inc.),
 the Gaussian 88(TM) system (copyright 1988, Gaussian, Inc.),
 the Gaussian 86(TM) system (copyright 1986, Carnegie Mellon
 University), and the Gaussian 82(TM) system (copyright 1983,
 Carnegie Mellon University). Gaussian is a federally registered
 trademark of Gaussian, Inc.
  
 This software contains proprietary and confidential information,
 including trade secrets, belonging to Gaussian, Inc.
  
 This software is provided under written license and may be
 used, copied, transmitted, or stored only in accord with that
 written license.
  
 The following legend is applicable only to US Government
 contracts under FAR:
  
                    RESTRICTED RIGHTS LEGEND
  
 Use, reproduction and disclosure by the US Government is
 subject to restrictions as set forth in subparagraphs (a)
 and (c) of the Commercial Computer Software - Restricted
 Rights clause in FAR 52.227-19.
  
 Gaussian, Inc.
 340 Quinnipiac St., Bldg. 40, Wallingford CT 06492
  
  
 ---------------------------------------------------------------
 Warning -- This program may not be used in any manner that
 competes with the business of Gaussian, Inc. or will provide
 assistance to any competitor of Gaussian, Inc.  The licensee
 of this program is prohibited from giving any competitor of
 Gaussian, Inc. access to this program.  By using this program,
 the user acknowledges that Gaussian, Inc. is engaged in the
 business of creating and licensing software in the field of
 computational chemistry and represents and warrants to the
 licensee that it is not a competitor of Gaussian, Inc. and that
 it will not use this program in any manner prohibited above.
 ---------------------------------------------------------------
  

 Cite this work as:
 Gaussian 09, Revision E.01,
 M. J. Frisch, G. W. Trucks, H. B. Schlegel, G. E. Scuseria, 
 M. A. Robb, J. R. Cheeseman, G. Scalmani, V. Barone, B. Mennucci, 
 G. A. Petersson, H. Nakatsuji, M. Caricato, X. Li, H. P. Hratchian, 
 A. F. Izmaylov, J. Bloino, G. Zheng, J. L. Sonnenberg, M. Hada, 
 M. Ehara, K. Toyota, R. Fukuda, J. Hasegawa, M. Ishida, T. Nakajima, 
 Y. Honda, O. Kitao, H. Nakai, T. Vreven, J. A. Montgomery, Jr., 
 J. E. Peralta, F. Ogliaro, M. Bearpark, J. J. Heyd, E. Brothers, 
 K. N. Kudin, V. N. Staroverov, T. Keith, R. Kobayashi, J. Normand, 
 K. Raghavachari, A. Rendell, J. C. Burant, S. S. Iyengar, J. Tomasi, 
 M. Cossi, N. Rega, J. M. Millam, M. Klene, J. E. Knox, J. B. Cross, 
 V. Bakken, C. Adamo, J. Jaramillo, R. Gomperts, R. E. Stratmann, 
 O. Yazyev, A. J. Austin, R. Cammi, C. Pomelli, J. W. Ochterski, 
 R. L. Martin, K. Morokuma, V. G. Zakrzewski, G. A. Voth, 
 P. Salvador, J. J. Dannenberg, S. Dapprich, A. D. Daniels, 
 O. Farkas, J. B. Foresman, J. V. Ortiz, J. Cioslowski, 
 and D. J. Fox, Gaussian, Inc., Wallingford CT, 2013.
 
 ******************************************
 Gaussian 09:  EM64L-G09RevE.01 30-Nov-2015
                 3-Sep-2021 
 ******************************************
 %nprocshared=16
 Will use up to   16 processors via shared memory.
 %mem=50GB
 %oldchk=PY_TPSSh_PC2_OPT_FREQ.chk
 %chk=PY_CCSD_PC2_OPT_FREQ.chk
 Copying data from "PY_TPSSh_PC2_OPT_FREQ.chk" to current chk file "PY_CCSD_PC2_OPT_FREQ.chk".
 ----------------------------------------------------------------------
 #p opt freq CCSD/gen SCF(novaracc,noincfock) int=acc2e=12 geom=checkpo
 int
 ----------------------------------------------------------------------
 1/18=20,19=15,29=2,38=1/1,3;
 2/9=110,12=2,40=1/2;
 3/5=7,11=9,14=-4,16=1,25=1,30=1,71=1/1,2,3;
 4//1;
 5/5=100002,38=1,87=12/2;
 8/6=4,9=120000,10=1,87=12/1,4;
 9/5=7,15=1,87=12/13;
 11/28=-8,29=200,42=3,87=12/11;
 10/5=6,87=12/2;
 6/7=2,8=2,9=2,10=2/1;
 7/12=7,87=12/1,2,3,16;
 1/18=20,19=15/3(2);
 2/9=110/2;
 99//99;
 2/9=110/2;
 3/5=7,6=1,11=9,14=-2,16=1,25=1,30=1,71=1,82=7/1,2,3;
 4/5=5,16=3,69=1/1;
 5/5=100002,38=1,87=12/2;
 8/6=4,9=120000,10=1,87=12/1,4;
 9/5=7,15=1,87=12/13;
 11/28=-8,29=200,42=3,87=12/11;
 10/5=6,87=12/2;
 7/12=7,87=12/1,2,3,16;
 1/18=20,19=15/3(-9);
 2/9=110/2;
 6/7=2,8=2,9=2,10=2/1;
 99//99;
 Leave Link    1 at Fri Sep  3 16:17:38 2021, MaxMem=  6710886400 cpu:        10.1
 (Enter /gpfs/share/home/1801110325/software/g09e01/l101.exe)
 --------------------
 PY_CCSD_PC2_OPT_FREQ
 --------------------
 Structure from the checkpoint file:  "PY_CCSD_PC2_OPT_FREQ.chk"
 Charge =  0 Multiplicity = 1
 Redundant internal coordinates found in file.
 O,0,-0.134766664,2.2849476993,0.
 N,0,-1.1355842261,0.2341275569,0.
 C,0,0.0021983527,1.0674596883,0.
 C,0,1.2426540156,0.324994805,0.
 C,0,-1.1201173631,-1.1250537155,0.
 C,0,1.2613521451,-1.0375734557,0.
 C,0,0.061212826,-1.7984044295,0.
 H,0,-2.015942597,0.7309079242,0.
 H,0,2.1517380101,0.9096886136,0.
 H,0,-2.0854292863,-1.6123049255,0.
 H,0,2.2125097972,-1.5575218921,0.
 H,0,0.07427799,-2.8776598692,0.
 Recover connectivity data from disk.
 NAtoms=     12 NQM=       12 NQMF=       0 NMMI=      0 NMMIF=      0
                NMic=       0 NMicF=      0.
                    Isotopes and Nuclear Properties:
 (Nuclear quadrupole moments (NQMom) in fm**2, nuclear magnetic moments (NMagM)
  in nuclear magnetons)

  Atom         1           2           3           4           5           6           7           8           9          10
 IAtWgt=          16          14          12          12          12          12          12           1           1           1
 AtmWgt=  15.9949146  14.0030740  12.0000000  12.0000000  12.0000000  12.0000000  12.0000000   1.0078250   1.0078250   1.0078250
 NucSpn=           0           2           0           0           0           0           0           1           1           1
 AtZEff=  -5.6000000  -4.5500000  -3.6000000  -3.6000000  -3.6000000  -3.6000000  -3.6000000  -1.0000000  -1.0000000  -1.0000000
 NQMom=    0.0000000   2.0440000   0.0000000   0.0000000   0.0000000   0.0000000   0.0000000   0.0000000   0.0000000   0.0000000
 NMagM=    0.0000000   0.4037610   0.0000000   0.0000000   0.0000000   0.0000000   0.0000000   2.7928460   2.7928460   2.7928460
 AtZNuc=   8.0000000   7.0000000   6.0000000   6.0000000   6.0000000   6.0000000   6.0000000   1.0000000   1.0000000   1.0000000

  Atom        11          12
 IAtWgt=           1           1
 AtmWgt=   1.0078250   1.0078250
 NucSpn=           1           1
 AtZEff=  -1.0000000  -1.0000000
 NQMom=    0.0000000   0.0000000
 NMagM=    2.7928460   2.7928460
 AtZNuc=   1.0000000   1.0000000
 Leave Link  101 at Fri Sep  3 16:17:38 2021, MaxMem=  6710886400 cpu:         6.6
 (Enter /gpfs/share/home/1801110325/software/g09e01/l103.exe)

 GradGradGradGradGradGradGradGradGradGradGradGradGradGradGradGradGradGrad
 Berny optimization.
 Initialization pass.
                           ----------------------------
                           !    Initial Parameters    !
                           ! (Angstroms and Degrees)  !
 --------------------------                            --------------------------
 ! Name  Definition              Value          Derivative Info.                !
 --------------------------------------------------------------------------------
 ! R1    R(1,3)                  1.2252         estimate D2E/DX2                !
 ! R2    R(2,3)                  1.4103         estimate D2E/DX2                !
 ! R3    R(2,5)                  1.3593         estimate D2E/DX2                !
 ! R4    R(2,8)                  1.0109         estimate D2E/DX2                !
 ! R5    R(3,4)                  1.4457         estimate D2E/DX2                !
 ! R6    R(4,6)                  1.3627         estimate D2E/DX2                !
 ! R7    R(4,9)                  1.0809         estimate D2E/DX2                !
 ! R8    R(5,7)                  1.3598         estimate D2E/DX2                !
 ! R9    R(5,10)                 1.0813         estimate D2E/DX2                !
 ! R10   R(6,7)                  1.421          estimate D2E/DX2                !
 ! R11   R(6,11)                 1.084          estimate D2E/DX2                !
 ! R12   R(7,12)                 1.0793         estimate D2E/DX2                !
 ! A1    A(3,2,5)              125.5677         estimate D2E/DX2                !
 ! A2    A(3,2,8)              114.3445         estimate D2E/DX2                !
 ! A3    A(5,2,8)              120.0877         estimate D2E/DX2                !
 ! A4    A(1,3,2)              119.801          estimate D2E/DX2                !
 ! A5    A(1,3,4)              127.321          estimate D2E/DX2                !
 ! A6    A(2,3,4)              112.878          estimate D2E/DX2                !
 ! A7    A(3,4,6)              121.6885         estimate D2E/DX2                !
 ! A8    A(3,4,9)              116.3499         estimate D2E/DX2                !
 ! A9    A(6,4,9)              121.9616         estimate D2E/DX2                !
 ! A10   A(2,5,7)              120.3348         estimate D2E/DX2                !
 ! A11   A(2,5,10)             116.1309         estimate D2E/DX2                !
 ! A12   A(7,5,10)             123.5343         estimate D2E/DX2                !
 ! A13   A(4,6,7)              121.5865         estimate D2E/DX2                !
 ! A14   A(4,6,11)             119.4493         estimate D2E/DX2                !
 ! A15   A(7,6,11)             118.9641         estimate D2E/DX2                !
 ! A16   A(5,7,6)              117.9444         estimate D2E/DX2                !
 ! A17   A(5,7,12)             120.3764         estimate D2E/DX2                !
 ! A18   A(6,7,12)             121.6792         estimate D2E/DX2                !
 ! D1    D(5,2,3,1)            180.0            estimate D2E/DX2                !
 ! D2    D(5,2,3,4)              0.0            estimate D2E/DX2                !
 ! D3    D(8,2,3,1)              0.0            estimate D2E/DX2                !
 ! D4    D(8,2,3,4)            180.0            estimate D2E/DX2                !
 ! D5    D(3,2,5,7)              0.0            estimate D2E/DX2                !
 ! D6    D(3,2,5,10)           180.0            estimate D2E/DX2                !
 ! D7    D(8,2,5,7)            180.0            estimate D2E/DX2                !
 ! D8    D(8,2,5,10)             0.0            estimate D2E/DX2                !
 ! D9    D(1,3,4,6)            180.0            estimate D2E/DX2                !
 ! D10   D(1,3,4,9)              0.0            estimate D2E/DX2                !
 ! D11   D(2,3,4,6)              0.0            estimate D2E/DX2                !
 ! D12   D(2,3,4,9)            180.0            estimate D2E/DX2                !
 ! D13   D(3,4,6,7)              0.0            estimate D2E/DX2                !
 ! D14   D(3,4,6,11)           180.0            estimate D2E/DX2                !
 ! D15   D(9,4,6,7)            180.0            estimate D2E/DX2                !
 ! D16   D(9,4,6,11)             0.0            estimate D2E/DX2                !
 ! D17   D(2,5,7,6)              0.0            estimate D2E/DX2                !
 ! D18   D(2,5,7,12)           180.0            estimate D2E/DX2                !
 ! D19   D(10,5,7,6)           180.0            estimate D2E/DX2                !
 ! D20   D(10,5,7,12)            0.0            estimate D2E/DX2                !
 ! D21   D(4,6,7,5)              0.0            estimate D2E/DX2                !
 ! D22   D(4,6,7,12)           180.0            estimate D2E/DX2                !
 ! D23   D(11,6,7,5)           180.0            estimate D2E/DX2                !
 ! D24   D(11,6,7,12)            0.0            estimate D2E/DX2                !
 --------------------------------------------------------------------------------
 Trust Radius=3.00D-01 FncErr=1.00D-07 GrdErr=1.00D-07
 Number of steps in this run=     64 maximum allowed number of steps=    100.
 GradGradGradGradGradGradGradGradGradGradGradGradGradGradGradGradGradGrad

 Leave Link  103 at Fri Sep  3 16:17:39 2021, MaxMem=  6710886400 cpu:         1.9
 (Enter /gpfs/share/home/1801110325/software/g09e01/l202.exe)
                          Input orientation:                          
 ---------------------------------------------------------------------
 Center     Atomic      Atomic             Coordinates (Angstroms)
 Number     Number       Type             X           Y           Z
 ---------------------------------------------------------------------
      1          8           0       -0.134767    2.284948   -0.000000
      2          7           0       -1.135584    0.234128   -0.000000
      3          6           0        0.002198    1.067460   -0.000000
      4          6           0        1.242654    0.324995    0.000000
      5          6           0       -1.120117   -1.125054   -0.000000
      6          6           0        1.261352   -1.037573    0.000000
      7          6           0        0.061213   -1.798404    0.000000
      8          1           0       -2.015943    0.730908   -0.000000
      9          1           0        2.151738    0.909689    0.000000
     10          1           0       -2.085429   -1.612305   -0.000000
     11          1           0        2.212510   -1.557522    0.000000
     12          1           0        0.074278   -2.877660    0.000000
 ---------------------------------------------------------------------
                    Distance matrix (angstroms):
                    1          2          3          4          5
     1  O    0.000000
     2  N    2.281995   0.000000
     3  C    1.225168   1.410316   0.000000
     4  C    2.395559   2.379974   1.445678   0.000000
     5  C    3.549511   1.359269   2.463069   2.772243   0.000000
     6  C    3.603928   2.713398   2.452883   1.362697   2.383076
     7  C    4.088052   2.358709   2.866472   2.429944   1.359758
     8  H    2.440054   1.010852   2.046011   3.283781   2.060848
     9  H    2.668228   3.356020   2.155322   1.080880   3.852949
    10  H    4.358172   2.076420   3.396959   3.850879   1.081314
    11  H    4.502697   3.797333   3.431618   2.117661   3.360570
    12  H    5.166838   3.338710   3.945778   3.409120   2.120898
                    6          7          8          9         10
     6  C    0.000000
     7  C    1.420985   0.000000
     8  H    3.724002   3.272919   0.000000
     9  H    2.141172   3.421120   4.171513   0.000000
    10  H    3.395771   2.154694   2.344243   4.930927   0.000000
    11  H    1.083996   2.164741   4.807985   2.467959   4.298288
    12  H    2.189763   1.079335   4.170226   4.319705   2.503090
                   11         12
    11  H    0.000000
    12  H    2.512926   0.000000
 Stoichiometry    C5H5NO
 Framework group  CS[SG(C5H5NO)]
 Deg. of freedom    21
 Full point group                 CS      NOp   2
 RotChk:  IX=0 Diff= 5.95D-32
 Largest Abelian subgroup         CS      NOp   2
 Largest concise Abelian subgroup C1      NOp   1
                         Standard orientation:                         
 ---------------------------------------------------------------------
 Center     Atomic      Atomic             Coordinates (Angstroms)
 Number     Number       Type             X           Y           Z
 ---------------------------------------------------------------------
      1          8           0       -0.139620    2.282646   -0.000000
      2          7           0       -1.135962    0.229648   -0.000000
      3          6           0       -0.000000    1.065460   -0.000000
      4          6           0        1.242072    0.325702    0.000000
      5          6           0       -1.117531   -1.129496   -0.000000
      6          6           0        1.263742   -1.036822    0.000000
      7          6           0        0.065265   -1.800269    0.000000
      8          1           0       -2.017402    0.724507   -0.000000
      9          1           0        2.149879    0.912377    0.000000
     10          1           0       -2.081778   -1.618852   -0.000000
     11          1           0        2.216031   -1.554695    0.000000
     12          1           0        0.080684   -2.879493    0.000000
 ---------------------------------------------------------------------
 Rotational constants (GHZ):      5.6893870      2.7917390      1.8727800
 Leave Link  202 at Fri Sep  3 16:17:39 2021, MaxMem=  6710886400 cpu:         3.4
 (Enter /gpfs/share/home/1801110325/software/g09e01/l301.exe)
 General basis read from cards:  (5D, 7F)
 Centers:       8      9     10     11     12
 S 4 1.00
     Exponent=  7.5423000000D+01 Coefficients=  2.4065000000D-03
     Exponent=  1.1350000000D+01 Coefficients=  1.8487000000D-02
     Exponent=  2.5993000000D+00 Coefficients=  8.9742000000D-02
     Exponent=  7.3513000000D-01 Coefficients=  2.8111000000D-01
 S 1 1.00
     Exponent=  2.3167000000D-01 Coefficients=  1.0000000000D+00
 S 1 1.00
     Exponent=  7.4147000000D-02 Coefficients=  1.0000000000D+00
 P 1 1.00
     Exponent=  1.6000000000D+00 Coefficients=  1.0000000000D+00
 P 1 1.00
     Exponent=  4.5000000000D-01 Coefficients=  1.0000000000D+00
 D 1 1.00
     Exponent=  1.2500000000D+00 Coefficients=  1.0000000000D+00
 ****
 Centers:       3      4      5      6      7
 S 7 1.00
     Exponent=  7.8571000000D+03 Coefficients=  5.6825000000D-04
     Exponent=  1.1787000000D+03 Coefficients=  4.3915000000D-03
     Exponent=  2.6832000000D+02 Coefficients=  2.2504000000D-02
     Exponent=  7.5948000000D+01 Coefficients=  8.6653000000D-02
     Exponent=  2.4559000000D+01 Coefficients=  2.4405000000D-01
     Exponent=  8.6212000000D+00 Coefficients=  4.4148000000D-01
     Exponent=  3.1278000000D+00 Coefficients=  3.5332000000D-01
 S 7 1.00
     Exponent=  1.1787000000D+03 Coefficients= -5.9492000000D-07
     Exponent=  2.6832000000D+02 Coefficients= -6.2748000000D-05
     Exponent=  7.5948000000D+01 Coefficients= -7.5773000000D-04
     Exponent=  2.4559000000D+01 Coefficients= -7.3308000000D-03
     Exponent=  8.6212000000D+00 Coefficients= -3.8932000000D-02
     Exponent=  3.1278000000D+00 Coefficients= -8.8908000000D-02
     Exponent=  8.2202000000D-01 Coefficients=  2.1689000000D-01
 S 1 1.00
     Exponent=  3.3017000000D-01 Coefficients=  1.0000000000D+00
 S 1 1.00
     Exponent=  1.1463000000D-01 Coefficients=  1.0000000000D+00
 P 4 1.00
     Exponent=  3.3775000000D+01 Coefficients=  6.0294000000D-03
     Exponent=  7.6766000000D+00 Coefficients=  4.3228000000D-02
     Exponent=  2.2357000000D+00 Coefficients=  1.6301000000D-01
     Exponent=  7.6447000000D-01 Coefficients=  3.6504000000D-01
 P 1 1.00
     Exponent=  2.6232000000D-01 Coefficients=  1.0000000000D+00
 P 1 1.00
     Exponent=  8.4638000000D-02 Coefficients=  1.0000000000D+00
 D 1 1.00
     Exponent=  1.4000000000D+00 Coefficients=  1.0000000000D+00
 D 1 1.00
     Exponent=  4.5000000000D-01 Coefficients=  1.0000000000D+00
 F 1 1.00
     Exponent=  9.5000000000D-01 Coefficients=  1.0000000000D+00
 ****
 Centers:       2
 S 7 1.00
     Exponent=  1.1101000000D+04 Coefficients=  5.4570000000D-04
     Exponent=  1.6653000000D+03 Coefficients=  4.2181000000D-03
     Exponent=  3.7908000000D+02 Coefficients=  2.1645000000D-02
     Exponent=  1.0730000000D+02 Coefficients=  8.3776000000D-02
     Exponent=  3.4747000000D+01 Coefficients=  2.3881000000D-01
     Exponent=  1.2249000000D+01 Coefficients=  4.3994000000D-01
     Exponent=  4.4743000000D+00 Coefficients=  3.6364000000D-01
 S 7 1.00
     Exponent=  1.6653000000D+03 Coefficients= -1.5006000000D-06
     Exponent=  3.7908000000D+02 Coefficients= -5.8753000000D-05
     Exponent=  1.0730000000D+02 Coefficients= -7.7453000000D-04
     Exponent=  3.4747000000D+01 Coefficients= -7.2161000000D-03
     Exponent=  1.2249000000D+01 Coefficients= -3.9338000000D-02
     Exponent=  4.4743000000D+00 Coefficients= -9.0611000000D-02
     Exponent=  1.2404000000D+00 Coefficients=  1.9882000000D-01
 S 1 1.00
     Exponent=  4.8743000000D-01 Coefficients=  1.0000000000D+00
 S 1 1.00
     Exponent=  1.6484000000D-01 Coefficients=  1.0000000000D+00
 P 4 1.00
     Exponent=  4.7934000000D+01 Coefficients=  6.1706000000D-03
     Exponent=  1.0999000000D+01 Coefficients=  4.4260000000D-02
     Exponent=  3.2472000000D+00 Coefficients=  1.6825000000D-01
     Exponent=  1.1114000000D+00 Coefficients=  3.6848000000D-01
 P 1 1.00
     Exponent=  3.7988000000D-01 Coefficients=  1.0000000000D+00
 P 1 1.00
     Exponent=  1.2068000000D-01 Coefficients=  1.0000000000D+00
 D 1 1.00
     Exponent=  1.8000000000D+00 Coefficients=  1.0000000000D+00
 D 1 1.00
     Exponent=  5.5000000000D-01 Coefficients=  1.0000000000D+00
 F 1 1.00
     Exponent=  1.0200000000D+00 Coefficients=  1.0000000000D+00
 ****
 Centers:       1
 S 7 1.00
     Exponent=  1.4782000000D+04 Coefficients=  5.3519000000D-04
     Exponent=  2.2173000000D+03 Coefficients=  4.1375000000D-03
     Exponent=  5.0474000000D+02 Coefficients=  2.1245000000D-02
     Exponent=  1.4287000000D+02 Coefficients=  8.2453000000D-02
     Exponent=  4.6300000000D+01 Coefficients=  2.3671000000D-01
     Exponent=  1.6337000000D+01 Coefficients=  4.4039000000D-01
     Exponent=  5.9828000000D+00 Coefficients=  3.6465000000D-01
 S 7 1.00
     Exponent=  2.2173000000D+03 Coefficients= -1.9275000000D-06
     Exponent=  5.0474000000D+02 Coefficients= -5.7964000000D-05
     Exponent=  1.4287000000D+02 Coefficients= -7.9494000000D-04
     Exponent=  4.6300000000D+01 Coefficients= -7.3125000000D-03
     Exponent=  1.6337000000D+01 Coefficients= -4.0574000000D-02
     Exponent=  5.9828000000D+00 Coefficients= -9.1594000000D-02
     Exponent=  1.6718000000D+00 Coefficients=  2.0940000000D-01
 S 1 1.00
     Exponent=  6.4662000000D-01 Coefficients=  1.0000000000D+00
 S 1 1.00
     Exponent=  2.1669000000D-01 Coefficients=  1.0000000000D+00
 P 4 1.00
     Exponent=  6.0424000000D+01 Coefficients=  6.8949000000D-03
     Exponent=  1.3935000000D+01 Coefficients=  4.9005000000D-02
     Exponent=  4.1531000000D+00 Coefficients=  1.8255000000D-01
     Exponent=  1.4158000000D+00 Coefficients=  3.7633000000D-01
 P 1 1.00
     Exponent=  4.7549000000D-01 Coefficients=  1.0000000000D+00
 P 1 1.00
     Exponent=  1.4529000000D-01 Coefficients=  1.0000000000D+00
 D 1 1.00
     Exponent=  2.2000000000D+00 Coefficients=  1.0000000000D+00
 D 1 1.00
     Exponent=  6.5000000000D-01 Coefficients=  1.0000000000D+00
 F 1 1.00
     Exponent=  1.1000000000D+00 Coefficients=  1.0000000000D+00
 ****
 Ernie: Thresh=  0.10000D-02 Tol=  0.10000D-05 Strict=F.
 Ernie:  7 primitive shells out of 220 were deleted.
 There are   223 symmetry adapted cartesian basis functions of A'  symmetry.
 There are    97 symmetry adapted cartesian basis functions of A"  symmetry.
 There are   190 symmetry adapted basis functions of A'  symmetry.
 There are    90 symmetry adapted basis functions of A"  symmetry.
   280 basis functions,   475 primitive gaussians,   320 cartesian basis functions
    25 alpha electrons       25 beta electrons
       nuclear repulsion energy       275.5178949531 Hartrees.
 IExCor=    0 DFT=F Ex=HF Corr=None ExCW=0 ScaHFX=  1.000000
 ScaDFX=  1.000000  1.000000  1.000000  1.000000 ScalE2=  1.000000  1.000000
 IRadAn=      0 IRanWt=     -1 IRanGd=            0 ICorTp=0 IEmpDi=  4
 NAtoms=   12 NActive=   12 NUniq=   12 SFac= 1.00D+00 NAtFMM=   60 NAOKFM=F Big=F
 Integral buffers will be    131072 words long.
 Raffenetti 1 integral format.
 Two-electron integral symmetry is turned on.
 Leave Link  301 at Fri Sep  3 16:17:39 2021, MaxMem=  6710886400 cpu:         8.4
 (Enter /gpfs/share/home/1801110325/software/g09e01/l302.exe)
 NPDir=0 NMtPBC=     1 NCelOv=     1 NCel=       1 NClECP=     1 NCelD=      1
         NCelK=      1 NCelE2=     1 NClLst=     1 CellRange=     0.0.
 One-electron integrals computed using PRISM.
 NBasis=   280 RedAO= T EigKep=  2.35D-04  NBF=   190    90
 NBsUse=   280 1.00D-06 EigRej= -1.00D+00 NBFU=   190    90
 Leave Link  302 at Fri Sep  3 16:17:40 2021, MaxMem=  6710886400 cpu:         4.4
 (Enter /gpfs/share/home/1801110325/software/g09e01/l303.exe)
 DipDrv:  MaxL=1.
 Leave Link  303 at Fri Sep  3 16:17:40 2021, MaxMem=  6710886400 cpu:         1.0
 (Enter /gpfs/share/home/1801110325/software/g09e01/l401.exe)
 ExpMin= 7.41D-02 ExpMax= 1.48D+04 ExpMxC= 5.05D+02 IAcc=2 IRadAn=         4 AccDes= 0.00D+00
 Harris functional with IExCor=  205 and IRadAn=       4 diagonalized for initial guess.
 HarFok:  IExCor=  205 AccDes= 0.00D+00 IRadAn=         4 IDoV= 1 UseB2=F ITyADJ=14
 ICtDFT=  3500011 ScaDFX=  1.000000  1.000000  1.000000  1.000000
 FoFCou: FMM=F IPFlag=           0 FMFlag=      100000 FMFlg1=           0
         NFxFlg=           0 DoJE=T BraDBF=F KetDBF=T FulRan=T
         wScrn=  0.000000 ICntrl=     500 IOpCl=  0 I1Cent=   200000004 NGrid=           0
         NMat0=    1 NMatS0=      1 NMatT0=    0 NMatD0=    1 NMtDS0=    0 NMtDT0=    0
 Petite list used in FoFCou.
 Harris En= -322.068910791557    
 JPrj=0 DoOrth=F DoCkMO=F.
 Initial guess orbital symmetries:
       Occupied  (A') (A') (A') (A') (A') (A') (A') (A') (A') (A')
                 (A') (A') (A') (A') (A') (A') (A') (A') (A") (A')
                 (A') (A") (A") (A') (A")
       Virtual   (A") (A") (A') (A") (A') (A') (A') (A') (A') (A')
                 (A') (A') (A") (A') (A") (A') (A") (A') (A') (A')
                 (A') (A") (A') (A') (A") (A') (A') (A') (A') (A')
                 (A") (A') (A') (A') (A") (A') (A') (A') (A') (A')
                 (A') (A') (A") (A') (A') (A') (A") (A') (A") (A")
                 (A') (A") (A') (A") (A') (A') (A') (A') (A') (A")
                 (A') (A") (A') (A') (A") (A") (A') (A') (A") (A")
                 (A') (A') (A') (A") (A') (A") (A') (A") (A') (A')
                 (A") (A') (A") (A') (A") (A') (A') (A') (A") (A")
                 (A') (A') (A") (A') (A') (A') (A') (A") (A') (A')
                 (A') (A') (A') (A") (A') (A') (A") (A') (A') (A')
                 (A") (A') (A') (A') (A') (A') (A") (A') (A') (A')
                 (A") (A') (A") (A') (A') (A") (A") (A') (A") (A")
                 (A') (A') (A") (A') (A") (A') (A') (A") (A') (A')
                 (A') (A') (A') (A") (A") (A') (A') (A') (A') (A')
                 (A') (A") (A") (A") (A") (A') (A") (A") (A') (A")
                 (A') (A") (A') (A') (A") (A') (A') (A') (A') (A")
                 (A') (A") (A') (A") (A") (A') (A') (A") (A') (A")
                 (A") (A") (A') (A") (A") (A') (A') (A") (A') (A")
                 (A') (A") (A') (A") (A') (A") (A') (A') (A") (A')
                 (A') (A') (A") (A') (A") (A') (A") (A') (A') (A')
                 (A') (A") (A') (A") (A') (A") (A') (A") (A') (A')
                 (A") (A') (A") (A") (A') (A') (A') (A') (A") (A')
                 (A') (A') (A') (A") (A') (A') (A") (A') (A') (A')
                 (A') (A") (A') (A') (A') (A') (A') (A') (A') (A')
                 (A') (A') (A') (A') (A')
 The electronic state of the initial guess is 1-A'.
 Leave Link  401 at Fri Sep  3 16:17:41 2021, MaxMem=  6710886400 cpu:         8.6
 (Enter /gpfs/share/home/1801110325/software/g09e01/l502.exe)
 Closed shell SCF:
 Using DIIS extrapolation, IDIIS=  1040.
 Integral symmetry usage will be decided dynamically.
 Keep R1 ints in memory in symmetry-blocked form, NReq=1167786838.
 IVT=      333298 IEndB=      333298 NGot=  6710886400 MDV=  6316937313
 LenX=  6316937313 LenY=  6316834472
 Requested convergence on RMS density matrix=1.00D-08 within 128 cycles.
 Requested convergence on MAX density matrix=1.00D-06.
 Requested convergence on             energy=1.00D-06.
 No special actions if energy rises.
 FoFCou: FMM=F IPFlag=           0 FMFlag=           0 FMFlg1=           0
         NFxFlg=           0 DoJE=F BraDBF=F KetDBF=F FulRan=T
         wScrn=  0.000000 ICntrl=     600 IOpCl=  0 I1Cent=           0 NGrid=           0
         NMat0=    1 NMatS0=  39340 NMatT0=    0 NMatD0=    1 NMtDS0=    0 NMtDT0=    0
 Petite list used in FoFCou.

 Cycle   1  Pass 1  IDiag  1:
 E= -321.375283310047    
 DIIS: error= 4.25D-02 at cycle   1 NSaved=   1.
 NSaved= 1 IEnMin= 1 EnMin= -321.375283310047     IErMin= 1 ErrMin= 4.25D-02
 ErrMax= 4.25D-02  0.00D+00 EMaxC= 1.00D-01 BMatC= 4.74D-01 BMatP= 4.74D-01
 IDIUse=3 WtCom= 5.75D-01 WtEn= 4.25D-01
 Coeff-Com:  0.100D+01
 Coeff-En:   0.100D+01
 Coeff:      0.100D+01
 Gap=     0.344 Goal=   None    Shift=    0.000
 GapD=    0.344 DampG=1.000 DampE=0.500 DampFc=0.5000 IDamp=-1.
 Damping current iteration by 5.00D-01
 RMSDP=2.51D-03 MaxDP=1.09D-01              OVMax= 1.71D-01

 Cycle   2  Pass 1  IDiag  1:
 E= -321.533578964090     Delta-E=       -0.158295654043 Rises=F Damp=T
 DIIS: error= 1.85D-02 at cycle   2 NSaved=   2.
 NSaved= 2 IEnMin= 2 EnMin= -321.533578964090     IErMin= 2 ErrMin= 1.85D-02
 ErrMax= 1.85D-02  0.00D+00 EMaxC= 1.00D-01 BMatC= 8.87D-02 BMatP= 4.74D-01
 IDIUse=3 WtCom= 8.15D-01 WtEn= 1.85D-01
 Coeff-Com: -0.530D+00 0.153D+01
 Coeff-En:   0.000D+00 0.100D+01
 Coeff:     -0.432D+00 0.143D+01
 Gap=     0.406 Goal=   None    Shift=    0.000
 RMSDP=1.04D-03 MaxDP=3.53D-02 DE=-1.58D-01 OVMax= 5.79D-02

 Cycle   3  Pass 1  IDiag  1:
 E= -321.676073426807     Delta-E=       -0.142494462717 Rises=F Damp=F
 DIIS: error= 4.59D-03 at cycle   3 NSaved=   3.
 NSaved= 3 IEnMin= 3 EnMin= -321.676073426807     IErMin= 3 ErrMin= 4.59D-03
 ErrMax= 4.59D-03  0.00D+00 EMaxC= 1.00D-01 BMatC= 4.23D-03 BMatP= 8.87D-02
 IDIUse=3 WtCom= 9.54D-01 WtEn= 4.59D-02
 Coeff-Com: -0.153D+00 0.285D+00 0.868D+00
 Coeff-En:   0.000D+00 0.000D+00 0.100D+01
 Coeff:     -0.146D+00 0.272D+00 0.874D+00
 Gap=     0.391 Goal=   None    Shift=    0.000
 RMSDP=1.92D-04 MaxDP=1.02D-02 DE=-1.42D-01 OVMax= 2.42D-02

 Cycle   4  Pass 1  IDiag  1:
 E= -321.679539124362     Delta-E=       -0.003465697555 Rises=F Damp=F
 DIIS: error= 1.49D-03 at cycle   4 NSaved=   4.
 NSaved= 4 IEnMin= 4 EnMin= -321.679539124362     IErMin= 4 ErrMin= 1.49D-03
 ErrMax= 1.49D-03  0.00D+00 EMaxC= 1.00D-01 BMatC= 6.23D-04 BMatP= 4.23D-03
 IDIUse=3 WtCom= 9.85D-01 WtEn= 1.49D-02
 Coeff-Com: -0.209D-01 0.150D-01 0.291D+00 0.714D+00
 Coeff-En:   0.000D+00 0.000D+00 0.000D+00 0.100D+01
 Coeff:     -0.205D-01 0.148D-01 0.287D+00 0.719D+00
 Gap=     0.393 Goal=   None    Shift=    0.000
 RMSDP=7.38D-05 MaxDP=3.19D-03 DE=-3.47D-03 OVMax= 6.29D-03

 Cycle   5  Pass 1  IDiag  1:
 E= -321.680224453088     Delta-E=       -0.000685328726 Rises=F Damp=F
 DIIS: error= 6.79D-04 at cycle   5 NSaved=   5.
 NSaved= 5 IEnMin= 5 EnMin= -321.680224453088     IErMin= 5 ErrMin= 6.79D-04
 ErrMax= 6.79D-04  0.00D+00 EMaxC= 1.00D-01 BMatC= 4.50D-05 BMatP= 6.23D-04
 IDIUse=3 WtCom= 9.93D-01 WtEn= 6.79D-03
 Coeff-Com:  0.144D-01-0.258D-01-0.963D-01-0.608D-01 0.117D+01
 Coeff-En:   0.000D+00 0.000D+00 0.000D+00 0.000D+00 0.100D+01
 Coeff:      0.143D-01-0.256D-01-0.956D-01-0.604D-01 0.117D+01
 Gap=     0.394 Goal=   None    Shift=    0.000
 RMSDP=4.79D-05 MaxDP=1.60D-03 DE=-6.85D-04 OVMax= 8.47D-03

 Cycle   6  Pass 1  IDiag  1:
 E= -321.680413109140     Delta-E=       -0.000188656053 Rises=F Damp=F
 DIIS: error= 2.93D-04 at cycle   6 NSaved=   6.
 NSaved= 6 IEnMin= 6 EnMin= -321.680413109140     IErMin= 6 ErrMin= 2.93D-04
 ErrMax= 2.93D-04  0.00D+00 EMaxC= 1.00D-01 BMatC= 1.02D-05 BMatP= 4.50D-05
 IDIUse=3 WtCom= 9.97D-01 WtEn= 2.93D-03
 Coeff-Com:  0.199D-02-0.678D-03-0.242D-01-0.125D+00-0.135D+00 0.128D+01
 Coeff-En:   0.000D+00 0.000D+00 0.000D+00 0.000D+00 0.000D+00 0.100D+01
 Coeff:      0.199D-02-0.677D-03-0.242D-01-0.125D+00-0.135D+00 0.128D+01
 Gap=     0.395 Goal=   None    Shift=    0.000
 RMSDP=3.00D-05 MaxDP=1.05D-03 DE=-1.89D-04 OVMax= 5.44D-03

 Cycle   7  Pass 1  IDiag  1:
 E= -321.680464559270     Delta-E=       -0.000051450130 Rises=F Damp=F
 DIIS: error= 1.22D-04 at cycle   7 NSaved=   7.
 NSaved= 7 IEnMin= 7 EnMin= -321.680464559270     IErMin= 7 ErrMin= 1.22D-04
 ErrMax= 1.22D-04  0.00D+00 EMaxC= 1.00D-01 BMatC= 1.84D-06 BMatP= 1.02D-05
 IDIUse=3 WtCom= 9.99D-01 WtEn= 1.22D-03
 Coeff-Com: -0.184D-02 0.351D-02 0.161D-01-0.156D-01-0.188D+00 0.129D+00
 Coeff-Com:  0.106D+01
 Coeff-En:   0.000D+00 0.000D+00 0.000D+00 0.000D+00 0.000D+00 0.000D+00
 Coeff-En:   0.100D+01
 Coeff:     -0.184D-02 0.351D-02 0.161D-01-0.155D-01-0.188D+00 0.129D+00
 Coeff:      0.106D+01
 Gap=     0.395 Goal=   None    Shift=    0.000
 RMSDP=1.13D-05 MaxDP=3.32D-04 DE=-5.15D-05 OVMax= 2.26D-03

 Cycle   8  Pass 1  IDiag  1:
 E= -321.680471627091     Delta-E=       -0.000007067821 Rises=F Damp=F
 DIIS: error= 4.66D-05 at cycle   8 NSaved=   8.
 NSaved= 8 IEnMin= 8 EnMin= -321.680471627091     IErMin= 8 ErrMin= 4.66D-05
 ErrMax= 4.66D-05  0.00D+00 EMaxC= 1.00D-01 BMatC= 3.02D-07 BMatP= 1.84D-06
 IDIUse=1 WtCom= 1.00D+00 WtEn= 0.00D+00
 Coeff-Com: -0.714D-03 0.693D-03 0.102D-01 0.212D-01-0.185D-03-0.255D+00
 Coeff-Com:  0.201D+00 0.102D+01
 Coeff:     -0.714D-03 0.693D-03 0.102D-01 0.212D-01-0.185D-03-0.255D+00
 Coeff:      0.201D+00 0.102D+01
 Gap=     0.395 Goal=   None    Shift=    0.000
 RMSDP=4.38D-06 MaxDP=1.53D-04 DE=-7.07D-06 OVMax= 7.97D-04

 Cycle   9  Pass 1  IDiag  1:
 E= -321.680472506221     Delta-E=       -0.000000879130 Rises=F Damp=F
 DIIS: error= 9.29D-06 at cycle   9 NSaved=   9.
 NSaved= 9 IEnMin= 9 EnMin= -321.680472506221     IErMin= 9 ErrMin= 9.29D-06
 ErrMax= 9.29D-06  0.00D+00 EMaxC= 1.00D-01 BMatC= 1.88D-08 BMatP= 3.02D-07
 IDIUse=1 WtCom= 1.00D+00 WtEn= 0.00D+00
 Coeff-Com:  0.228D-03-0.379D-03-0.176D-02-0.293D-02 0.106D-01 0.261D-01
 Coeff-Com: -0.883D-01-0.142D+00 0.120D+01
 Coeff:      0.228D-03-0.379D-03-0.176D-02-0.293D-02 0.106D-01 0.261D-01
 Coeff:     -0.883D-01-0.142D+00 0.120D+01
 Gap=     0.395 Goal=   None    Shift=    0.000
 RMSDP=1.02D-06 MaxDP=4.20D-05 DE=-8.79D-07 OVMax= 1.92D-04

 Cycle  10  Pass 1  IDiag  1:
 E= -321.680472571802     Delta-E=       -0.000000065581 Rises=F Damp=F
 DIIS: error= 4.34D-06 at cycle  10 NSaved=  10.
 NSaved=10 IEnMin=10 EnMin= -321.680472571802     IErMin=10 ErrMin= 4.34D-06
 ErrMax= 4.34D-06  0.00D+00 EMaxC= 1.00D-01 BMatC= 4.57D-09 BMatP= 1.88D-08
 IDIUse=1 WtCom= 1.00D+00 WtEn= 0.00D+00
 Coeff-Com:  0.178D-03-0.230D-03-0.170D-02-0.380D-02 0.176D-02 0.443D-01
 Coeff-Com: -0.410D-01-0.188D+00 0.147D+00 0.104D+01
 Coeff:      0.178D-03-0.230D-03-0.170D-02-0.380D-02 0.176D-02 0.443D-01
 Coeff:     -0.410D-01-0.188D+00 0.147D+00 0.104D+01
 Gap=     0.395 Goal=   None    Shift=    0.000
 RMSDP=4.41D-07 MaxDP=1.41D-05 DE=-6.56D-08 OVMax= 6.44D-05

 Cycle  11  Pass 1  IDiag  1:
 E= -321.680472585640     Delta-E=       -0.000000013838 Rises=F Damp=F
 DIIS: error= 2.99D-06 at cycle  11 NSaved=  11.
 NSaved=11 IEnMin=11 EnMin= -321.680472585640     IErMin=11 ErrMin= 2.99D-06
 ErrMax= 2.99D-06  0.00D+00 EMaxC= 1.00D-01 BMatC= 6.09D-10 BMatP= 4.57D-09
 IDIUse=1 WtCom= 1.00D+00 WtEn= 0.00D+00
 Coeff-Com: -0.246D-04 0.363D-04 0.365D-03 0.484D-03-0.255D-02-0.413D-02
 Coeff-Com:  0.187D-01 0.231D-01-0.243D+00-0.154D-01 0.122D+01
 Coeff:     -0.246D-04 0.363D-04 0.365D-03 0.484D-03-0.255D-02-0.413D-02
 Coeff:      0.187D-01 0.231D-01-0.243D+00-0.154D-01 0.122D+01
 Gap=     0.395 Goal=   None    Shift=    0.000
 RMSDP=2.36D-07 MaxDP=7.92D-06 DE=-1.38D-08 OVMax= 4.34D-05

 Cycle  12  Pass 1  IDiag  1:
 E= -321.680472588472     Delta-E=       -0.000000002832 Rises=F Damp=F
 DIIS: error= 5.83D-07 at cycle  12 NSaved=  12.
 NSaved=12 IEnMin=12 EnMin= -321.680472588472     IErMin=12 ErrMin= 5.83D-07
 ErrMax= 5.83D-07  0.00D+00 EMaxC= 1.00D-01 BMatC= 5.72D-11 BMatP= 6.09D-10
 IDIUse=1 WtCom= 1.00D+00 WtEn= 0.00D+00
 Coeff-Com: -0.928D-05 0.930D-05 0.101D-03 0.314D-03 0.254D-03-0.335D-02
 Coeff-Com: -0.629D-03 0.155D-01 0.386D-01-0.106D+00-0.269D+00 0.132D+01
 Coeff:     -0.928D-05 0.930D-05 0.101D-03 0.314D-03 0.254D-03-0.335D-02
 Coeff:     -0.629D-03 0.155D-01 0.386D-01-0.106D+00-0.269D+00 0.132D+01
 Gap=     0.395 Goal=   None    Shift=    0.000
 RMSDP=7.43D-08 MaxDP=2.40D-06 DE=-2.83D-09 OVMax= 1.29D-05

 Cycle  13  Pass 1  IDiag  1:
 E= -321.680472588726     Delta-E=       -0.000000000253 Rises=F Damp=F
 DIIS: error= 2.51D-07 at cycle  13 NSaved=  13.
 NSaved=13 IEnMin=13 EnMin= -321.680472588726     IErMin=13 ErrMin= 2.51D-07
 ErrMax= 2.51D-07  0.00D+00 EMaxC= 1.00D-01 BMatC= 6.81D-12 BMatP= 5.72D-11
 IDIUse=1 WtCom= 1.00D+00 WtEn= 0.00D+00
 Coeff-Com:  0.266D-05-0.373D-05-0.435D-04-0.525D-04 0.208D-03 0.787D-03
 Coeff-Com: -0.249D-02-0.248D-02 0.244D-01 0.970D-02-0.113D+00-0.601D-01
 Coeff-Com:  0.114D+01
 Coeff:      0.266D-05-0.373D-05-0.435D-04-0.525D-04 0.208D-03 0.787D-03
 Coeff:     -0.249D-02-0.248D-02 0.244D-01 0.970D-02-0.113D+00-0.601D-01
 Coeff:      0.114D+01
 Gap=     0.395 Goal=   None    Shift=    0.000
 RMSDP=2.02D-08 MaxDP=7.02D-07 DE=-2.53D-10 OVMax= 4.01D-06

 Cycle  14  Pass 1  IDiag  1:
 E= -321.680472588753     Delta-E=       -0.000000000027 Rises=F Damp=F
 DIIS: error= 9.46D-08 at cycle  14 NSaved=  14.
 NSaved=14 IEnMin=14 EnMin= -321.680472588753     IErMin=14 ErrMin= 9.46D-08
 ErrMax= 9.46D-08  0.00D+00 EMaxC= 1.00D-01 BMatC= 2.10D-12 BMatP= 6.81D-12
 IDIUse=1 WtCom= 1.00D+00 WtEn= 0.00D+00
 Coeff-Com:  0.190D-05-0.188D-05-0.268D-04-0.640D-04-0.511D-04 0.837D-03
 Coeff-Com: -0.376D-03-0.321D-02-0.634D-02 0.237D-01 0.404D-01-0.312D+00
 Coeff-Com:  0.216D+00 0.104D+01
 Coeff:      0.190D-05-0.188D-05-0.268D-04-0.640D-04-0.511D-04 0.837D-03
 Coeff:     -0.376D-03-0.321D-02-0.634D-02 0.237D-01 0.404D-01-0.312D+00
 Coeff:      0.216D+00 0.104D+01
 Gap=     0.395 Goal=   None    Shift=    0.000
 RMSDP=1.20D-08 MaxDP=3.17D-07 DE=-2.67D-11 OVMax= 2.24D-06

 Cycle  15  Pass 1  IDiag  1:
 E= -321.680472588767     Delta-E=       -0.000000000014 Rises=F Damp=F
 DIIS: error= 2.75D-08 at cycle  15 NSaved=  15.
 NSaved=15 IEnMin=15 EnMin= -321.680472588767     IErMin=15 ErrMin= 2.75D-08
 ErrMax= 2.75D-08  0.00D+00 EMaxC= 1.00D-01 BMatC= 1.38D-13 BMatP= 2.10D-12
 IDIUse=1 WtCom= 1.00D+00 WtEn= 0.00D+00
 Coeff-Com: -0.370D-06 0.461D-06 0.693D-05 0.128D-04-0.191D-04-0.131D-03
 Coeff-Com:  0.241D-03 0.684D-03-0.224D-02-0.268D-02 0.931D-02 0.360D-01
 Coeff-Com: -0.133D+00-0.159D+00 0.125D+01
 Coeff:     -0.370D-06 0.461D-06 0.693D-05 0.128D-04-0.191D-04-0.131D-03
 Coeff:      0.241D-03 0.684D-03-0.224D-02-0.268D-02 0.931D-02 0.360D-01
 Coeff:     -0.133D+00-0.159D+00 0.125D+01
 Gap=     0.395 Goal=   None    Shift=    0.000
 RMSDP=3.69D-09 MaxDP=1.18D-07 DE=-1.41D-11 OVMax= 6.01D-07

 SCF Done:  E(RHF) =  -321.680472589     A.U. after   15 cycles
            NFock= 15  Conv=0.37D-08     -V/T= 2.0012
 KE= 3.212906613367D+02 PE=-1.303969444396D+03 EE= 3.854804155169D+02
 Leave Link  502 at Fri Sep  3 16:17:59 2021, MaxMem=  6710886400 cpu:       212.1
 (Enter /gpfs/share/home/1801110325/software/g09e01/l801.exe)
 Windowed orbitals will be sorted by symmetry type.
 ExpMin= 7.41D-02 ExpMax= 1.48D+04 ExpMxC= 5.05D+02 IAcc=3 IRadAn=         5 AccDes= 0.00D+00
 HarFok:  IExCor=  205 AccDes= 0.00D+00 IRadAn=         5 IDoV=-2 UseB2=F ITyADJ=14
 ICtDFT= 12500011 ScaDFX=  1.000000  1.000000  1.000000  1.000000
 Largest valence mixing into a core orbital is  1.09D-04
 Largest core mixing into a valence orbital is  4.22D-05
 Range of M.O.s used for correlation:     8   280
 NBasis=   280 NAE=    25 NBE=    25 NFC=     7 NFV=     0
 NROrb=    273 NOA=    18 NOB=    18 NVA=   255 NVB=   255

 **** Warning!!: The largest alpha MO coefficient is  0.16241588D+02

 Leave Link  801 at Fri Sep  3 16:17:59 2021, MaxMem=  6710886400 cpu:         1.0
 (Enter /gpfs/share/home/1801110325/software/g09e01/l804.exe)
 Closed-shell transformation, MDV=  6710886400 ITran=4 ISComp=2.
 Semi-Direct transformation.
 ModeAB=           4 MOrb=            18 LenV=    6708678996
 LASXX=     89498580 LTotXX=    89498580 LenRXX=   180097645
 LTotAB=    90599065 MaxLAS=   249326532 LenRXY=           0
 NonZer=   269596225 LenScr=   405009905 LnRSAI=   249326532
 LnScr1=   374339252 LExtra=           0 Total=   1208773334
 MaxDsk=          -1 SrtSym=           T ITran=            4
 DoSDTr:  NPSUse= 16
 JobTyp=0 Pass  1:  I=   1 to  18.
 (rs|ai) integrals will be sorted in core.
 Complete sort for first half transformation.
 First half transformation complete.
 Begin second half transformation for I=  10.
 Complete sort for second half transformation.
 Second half transformation complete.
 Spin components of T(2) and E(2):
     alpha-alpha T2 =       0.5107085495D-01 E2=     -0.1538341817D+00
     alpha-beta  T2 =       0.2720561121D+00 E2=     -0.8888858529D+00
     beta-beta   T2 =       0.5107085495D-01 E2=     -0.1538341817D+00
 ANorm=    0.1172261840D+01
 E2 =    -0.1196554216D+01 EUMP2 =    -0.32287702680500D+03
 Leave Link  804 at Fri Sep  3 16:18:37 2021, MaxMem=  6710886400 cpu:       595.6
 (Enter /gpfs/share/home/1801110325/software/g09e01/l913.exe)
 CIDS:  MDV=  6710886400.
 Frozen-core window:  NFC=   7 NFV=   0.
 IFCWin=0 IBDFC=1 NFBD=     0     0 NFCmp=     0     0 NFFFC=     0     0
 Using DD3R+UMP44R for 1st iteration, S=T.
 Using DD4RQ for 2nd and later iterations.
 Keep R2 and R3 ints in memory in symmetry-blocked form, NReq=1180684948.
 FoFCou: FMM=F IPFlag=           0 FMFlag=           0 FMFlg1=           0
         NFxFlg=           0 DoJE=F BraDBF=F KetDBF=F FulRan=T
         wScrn=  0.000000 ICntrl=     600 IOpCl=  0 I1Cent=           0 NGrid=           0
         NMat0=    1 NMatS0=  39340 NMatT0=    0 NMatD0=    1 NMtDS0=    0 NMtDT0=    0
 Petite list used in FoFCou.
 Coupled Cluster theory with single and double substitutions
 ===========================================================
 Iterations=  50 Convergence= 0.100D-07
 Iteration Nr.   1
 **********************
 DD1Dir will call FoFMem   1 times, MxPair=       342
 NAB=   171 NAA=     0 NBB=     0.
 MP4(R+Q)=  0.34617937D-01
 Maximum subspace dimension=  5
 Norm of the A-vectors is  2.1504520D+00 conv= 1.00D-06.
 RLE energy=       -1.1755598427
 E3=       -0.13965867D-01        EUMP3=      -0.32289099267D+03
 E4(DQ)=    0.78210650D-02        UMP4(DQ)=   -0.32288317161D+03
 E4(SDQ)=  -0.65400771D-02        UMP4(SDQ)=  -0.32289753275D+03
 VARIATIONAL ENERGIES WITH THE FIRST-ORDER WAVEFUNCTION:
 DE(Corr)=  -1.1751853     E(Corr)=     -322.85565791    
 NORM(A)=   0.11687848D+01
 Iteration Nr.   2
 **********************
 DD1Dir will call FoFMem   1 times, MxPair=       342
 NAB=   171 NAA=     0 NBB=     0.
 Norm of the A-vectors is  7.8979982D-01 conv= 1.00D-06.
 RLE energy=       -1.2120264460
 DE(Corr)=  -1.2119760     E(CORR)=     -322.89244859     Delta=-3.68D-02
 NORM(A)=   0.11824921D+01
 Iteration Nr.   3
 **********************
 DD1Dir will call FoFMem   1 times, MxPair=       342
 NAB=   171 NAA=     0 NBB=     0.
 Norm of the A-vectors is  2.2874776D-01 conv= 1.00D-06.
 RLE energy=       -1.2139350125
 DE(Corr)=  -1.2106114     E(CORR)=     -322.89108403     Delta= 1.36D-03
 NORM(A)=   0.11863433D+01
 Iteration Nr.   4
 **********************
 DD1Dir will call FoFMem   1 times, MxPair=       342
 NAB=   171 NAA=     0 NBB=     0.
 Norm of the A-vectors is  1.0535254D-01 conv= 1.00D-06.
 RLE energy=       -1.2141594114
 DE(Corr)=  -1.2138878     E(CORR)=     -322.89436043     Delta=-3.28D-03
 NORM(A)=   0.11877169D+01
 Iteration Nr.   5
 **********************
 DD1Dir will call FoFMem   1 times, MxPair=       342
 NAB=   171 NAA=     0 NBB=     0.
 Norm of the A-vectors is  3.3043006D-02 conv= 1.00D-06.
 RLE energy=       -1.2143859536
 DE(Corr)=  -1.2143133     E(CORR)=     -322.89478585     Delta=-4.25D-04
 NORM(A)=   0.11883103D+01
 Iteration Nr.   6
 **********************
 DD1Dir will call FoFMem   1 times, MxPair=       342
 NAB=   171 NAA=     0 NBB=     0.
 Norm of the A-vectors is  1.5963261D-02 conv= 1.00D-06.
 RLE energy=       -1.2144224891
 DE(Corr)=  -1.2143742     E(CORR)=     -322.89484677     Delta=-6.09D-05
 NORM(A)=   0.11884555D+01
 Iteration Nr.   7
 **********************
 DD1Dir will call FoFMem   1 times, MxPair=       342
 NAB=   171 NAA=     0 NBB=     0.
 Norm of the A-vectors is  5.9757253D-03 conv= 1.00D-06.
 RLE energy=       -1.2143433388
 DE(Corr)=  -1.2143775     E(CORR)=     -322.89485013     Delta=-3.36D-06
 NORM(A)=   0.11884562D+01
 Iteration Nr.   8
 **********************
 DD1Dir will call FoFMem   1 times, MxPair=       342
 NAB=   171 NAA=     0 NBB=     0.
 Norm of the A-vectors is  2.8636262D-03 conv= 1.00D-06.
 RLE energy=       -1.2143785617
 DE(Corr)=  -1.2143818     E(CORR)=     -322.89485436     Delta=-4.22D-06
 NORM(A)=   0.11884745D+01
 Iteration Nr.   9
 **********************
 DD1Dir will call FoFMem   1 times, MxPair=       342
 NAB=   171 NAA=     0 NBB=     0.
 Norm of the A-vectors is  1.1432486D-03 conv= 1.00D-06.
 RLE energy=       -1.2143727558
 DE(Corr)=  -1.2143742     E(CORR)=     -322.89484683     Delta= 7.53D-06
 NORM(A)=   0.11884740D+01
 Iteration Nr.  10
 **********************
 DD1Dir will call FoFMem   1 times, MxPair=       342
 NAB=   171 NAA=     0 NBB=     0.
 Norm of the A-vectors is  6.7263280D-04 conv= 1.00D-06.
 RLE energy=       -1.2143778973
 DE(Corr)=  -1.2143784     E(CORR)=     -322.89485095     Delta=-4.12D-06
 NORM(A)=   0.11884751D+01
 Iteration Nr.  11
 **********************
 DD1Dir will call FoFMem   1 times, MxPair=       342
 NAB=   171 NAA=     0 NBB=     0.
 Norm of the A-vectors is  3.3523136D-04 conv= 1.00D-06.
 RLE energy=       -1.2143781934
 DE(Corr)=  -1.2143775     E(CORR)=     -322.89485006     Delta= 8.90D-07
 NORM(A)=   0.11884765D+01
 Iteration Nr.  12
 **********************
 DD1Dir will call FoFMem   1 times, MxPair=       342
 NAB=   171 NAA=     0 NBB=     0.
 Norm of the A-vectors is  1.9076067D-04 conv= 1.00D-06.
 RLE energy=       -1.2143788849
 DE(Corr)=  -1.2143788     E(CORR)=     -322.89485139     Delta=-1.34D-06
 NORM(A)=   0.11884772D+01
 Iteration Nr.  13
 **********************
 DD1Dir will call FoFMem   1 times, MxPair=       342
 NAB=   171 NAA=     0 NBB=     0.
 Norm of the A-vectors is  8.8199250D-05 conv= 1.00D-06.
 RLE energy=       -1.2143791410
 DE(Corr)=  -1.2143789     E(CORR)=     -322.89485153     Delta=-1.41D-07
 NORM(A)=   0.11884779D+01
 Iteration Nr.  14
 **********************
 DD1Dir will call FoFMem   1 times, MxPair=       342
 NAB=   171 NAA=     0 NBB=     0.
 Norm of the A-vectors is  4.8012630D-05 conv= 1.00D-06.
 RLE energy=       -1.2143791730
 DE(Corr)=  -1.2143791     E(CORR)=     -322.89485170     Delta=-1.63D-07
 NORM(A)=   0.11884782D+01
 Iteration Nr.  15
 **********************
 DD1Dir will call FoFMem   1 times, MxPair=       342
 NAB=   171 NAA=     0 NBB=     0.
 Norm of the A-vectors is  1.9653364D-05 conv= 1.00D-06.
 RLE energy=       -1.2143791708
 DE(Corr)=  -1.2143792     E(CORR)=     -322.89485175     Delta=-5.48D-08
 NORM(A)=   0.11884783D+01
 Iteration Nr.  16
 **********************
 DD1Dir will call FoFMem   1 times, MxPair=       342
 NAB=   171 NAA=     0 NBB=     0.
 Norm of the A-vectors is  1.1033957D-05 conv= 1.00D-06.
 RLE energy=       -1.2143791961
 DE(Corr)=  -1.2143792     E(CORR)=     -322.89485178     Delta=-2.46D-08
 NORM(A)=   0.11884784D+01
 Iteration Nr.  17
 **********************
 DD1Dir will call FoFMem   1 times, MxPair=       342
 NAB=   171 NAA=     0 NBB=     0.
 Norm of the A-vectors is  5.4287383D-06 conv= 1.00D-06.
 RLE energy=       -1.2143791810
 DE(Corr)=  -1.2143792     E(CORR)=     -322.89485177     Delta= 5.52D-09
 NORM(A)=   0.11884784D+01
 Iteration Nr.  18
 **********************
 DD1Dir will call FoFMem   1 times, MxPair=       342
 NAB=   171 NAA=     0 NBB=     0.
 Norm of the A-vectors is  3.2588099D-06 conv= 1.00D-06.
 RLE energy=       -1.2143791888
 DE(Corr)=  -1.2143792     E(CORR)=     -322.89485178     Delta=-8.18D-09
 NORM(A)=   0.11884784D+01
 Iteration Nr.  19
 **********************
 DD1Dir will call FoFMem   1 times, MxPair=       342
 NAB=   171 NAA=     0 NBB=     0.
 Norm of the A-vectors is  1.4896598D-06 conv= 1.00D-06.
 RLE energy=       -1.2143791864
 DE(Corr)=  -1.2143792     E(CORR)=     -322.89485178     Delta= 2.27D-09
 NORM(A)=   0.11884784D+01
 Iteration Nr.  20
 **********************
 DD1Dir will call FoFMem   1 times, MxPair=       342
 NAB=   171 NAA=     0 NBB=     0.
 Norm of the A-vectors is  2.0662153D-06 conv= 1.00D-06.
 RLE energy=       -1.2143792051
 DE(Corr)=  -1.2143792     E(CORR)=     -322.89485178     Delta=-2.89D-09
 NORM(A)=   0.11884785D+01
 Iteration Nr.  21
 **********************
 DD1Dir will call FoFMem   1 times, MxPair=       342
 NAB=   171 NAA=     0 NBB=     0.
 Norm of the A-vectors is  5.6438409D-06 conv= 1.00D-06.
 RLE energy=       -1.2143791937
 DE(Corr)=  -1.2143792     E(CORR)=     -322.89485178     Delta= 1.24D-09
 NORM(A)=   0.11884785D+01
 Iteration Nr.  22
 **********************
 DD1Dir will call FoFMem   1 times, MxPair=       342
 NAB=   171 NAA=     0 NBB=     0.
 Norm of the A-vectors is  1.1898786D-06 conv= 1.00D-06.
 RLE energy=       -1.2143791913
 DE(Corr)=  -1.2143792     E(CORR)=     -322.89485178     Delta=-2.15D-09
 NORM(A)=   0.11884785D+01
 Iteration Nr.  23
 **********************
 DD1Dir will call FoFMem   1 times, MxPair=       342
 NAB=   171 NAA=     0 NBB=     0.
 Norm of the A-vectors is  5.5318198D-07 conv= 1.00D-06.
 RLE energy=       -1.2143791910
 DE(Corr)=  -1.2143792     E(CORR)=     -322.89485178     Delta= 5.27D-10
 NORM(A)=   0.11884785D+01
 CI/CC converged in   23 iterations to DelEn= 5.27D-10 Conv= 1.00D-08 ErrA1= 5.53D-07 Conv= 1.00D-06
 Largest amplitude= 5.99D-02

 Z-AMPLITUDE ITERATIONS

 Iteration Nr.   1
 **********************
 DD1Dir will call FoFMem   1 times, MxPair=       342
 NAB=   171 NAA=     0 NBB=     0.
 Norm of the A-vectors is  5.3444442D-01 conv= 1.00D-06.
 RLE energy=       -1.2141096088
 DE(Z)  -0.11732529D+01          E(Z)=    -0.32285372551D+03
 NORM(A)=   0.11883693D+01
 Iteration Nr.   2
 **********************
 DD1Dir will call FoFMem   1 times, MxPair=       342
 NAB=   171 NAA=     0 NBB=     0.
 Norm of the A-vectors is  5.3103705D-01 conv= 1.00D-06.
 RLE energy=       -1.2140952809
 DE(Z)  -0.11732318D+01          E(Z)=    -0.32285370438D+03
 NORM(A)=   0.11883636D+01
 Iteration Nr.   3
 **********************
 DD1Dir will call FoFMem   1 times, MxPair=       342
 NAB=   171 NAA=     0 NBB=     0.
 Norm of the A-vectors is  5.3096289D-01 conv= 1.00D-06.
 RLE energy=       -1.2139678801
 DE(Z)  -0.11732391D+01          E(Z)=    -0.32285371169D+03
 NORM(A)=   0.11883049D+01
 Iteration Nr.   4
 **********************
 DD1Dir will call FoFMem   1 times, MxPair=       342
 NAB=   171 NAA=     0 NBB=     0.
 Norm of the A-vectors is  5.2934117D-01 conv= 1.00D-06.
 RLE energy=       -1.2132723718
 DE(Z)  -0.11732287D+01          E(Z)=    -0.32285370129D+03
 NORM(A)=   0.11880058D+01
 Iteration Nr.   5
 **********************
 DD1Dir will call FoFMem   1 times, MxPair=       342
 NAB=   171 NAA=     0 NBB=     0.
 Norm of the A-vectors is  5.2076681D-01 conv= 1.00D-06.
 RLE energy=       -1.1706927850
 DE(Z)  -0.11731878D+01          E(Z)=    -0.32285366036D+03
 NORM(A)=   0.11711567D+01
 Iteration Nr.   6
 **********************
 DD1Dir will call FoFMem   1 times, MxPair=       342
 NAB=   171 NAA=     0 NBB=     0.
 Norm of the A-vectors is  4.2746909D-03 conv= 1.00D-06.
 RLE energy=       -1.1707037103
 DE(Z)  -0.11707085D+01          E(Z)=    -0.32285118110D+03
 NORM(A)=   0.11711554D+01
 Iteration Nr.   7
 **********************
 DD1Dir will call FoFMem   1 times, MxPair=       342
 NAB=   171 NAA=     0 NBB=     0.
 Norm of the A-vectors is  1.5604371D-03 conv= 1.00D-06.
 RLE energy=       -1.1707006986
 DE(Z)  -0.11707027D+01          E(Z)=    -0.32285117528D+03
 NORM(A)=   0.11711509D+01
 Iteration Nr.   8
 **********************
 DD1Dir will call FoFMem   1 times, MxPair=       342
 NAB=   171 NAA=     0 NBB=     0.
 Norm of the A-vectors is  8.8706390D-04 conv= 1.00D-06.
 RLE energy=       -1.1707017616
 DE(Z)  -0.11707052D+01          E(Z)=    -0.32285117778D+03
 NORM(A)=   0.11711466D+01
 Iteration Nr.   9
 **********************
 DD1Dir will call FoFMem   1 times, MxPair=       342
 NAB=   171 NAA=     0 NBB=     0.
 Norm of the A-vectors is  3.0738337D-04 conv= 1.00D-06.
 RLE energy=       -1.1707031233
 DE(Z)  -0.11707039D+01          E(Z)=    -0.32285117644D+03
 NORM(A)=   0.11711458D+01
 Iteration Nr.  10
 **********************
 DD1Dir will call FoFMem   1 times, MxPair=       342
 NAB=   171 NAA=     0 NBB=     0.
 Norm of the A-vectors is  1.5959339D-04 conv= 1.00D-06.
 RLE energy=       -1.1707026846
 DE(Z)  -0.11707029D+01          E(Z)=    -0.32285117549D+03
 NORM(A)=   0.11711455D+01
 Iteration Nr.  11
 **********************
 DD1Dir will call FoFMem   1 times, MxPair=       342
 NAB=   171 NAA=     0 NBB=     0.
 Norm of the A-vectors is  6.5127932D-05 conv= 1.00D-06.
 RLE energy=       -1.1707028631
 DE(Z)  -0.11707030D+01          E(Z)=    -0.32285117556D+03
 NORM(A)=   0.11711457D+01
 Iteration Nr.  12
 **********************
 DD1Dir will call FoFMem   1 times, MxPair=       342
 NAB=   171 NAA=     0 NBB=     0.
 Norm of the A-vectors is  3.9261301D-05 conv= 1.00D-06.
 RLE energy=       -1.1707028946
 DE(Z)  -0.11707029D+01          E(Z)=    -0.32285117548D+03
 NORM(A)=   0.11711460D+01
 Iteration Nr.  13
 **********************
 DD1Dir will call FoFMem   1 times, MxPair=       342
 NAB=   171 NAA=     0 NBB=     0.
 Norm of the A-vectors is  2.0867840D-05 conv= 1.00D-06.
 RLE energy=       -1.1707029750
 DE(Z)  -0.11707030D+01          E(Z)=    -0.32285117555D+03
 NORM(A)=   0.11711461D+01
 Iteration Nr.  14
 **********************
 DD1Dir will call FoFMem   1 times, MxPair=       342
 NAB=   171 NAA=     0 NBB=     0.
 Norm of the A-vectors is  9.8392869D-06 conv= 1.00D-06.
 RLE energy=       -1.1707029699
 DE(Z)  -0.11707030D+01          E(Z)=    -0.32285117555D+03
 NORM(A)=   0.11711462D+01
 Iteration Nr.  15
 **********************
 DD1Dir will call FoFMem   1 times, MxPair=       342
 NAB=   171 NAA=     0 NBB=     0.
 Norm of the A-vectors is  3.8200141D-06 conv= 1.00D-06.
 RLE energy=       -1.1707029805
 DE(Z)  -0.11707030D+01          E(Z)=    -0.32285117557D+03
 NORM(A)=   0.11711462D+01
 Iteration Nr.  16
 **********************
 DD1Dir will call FoFMem   1 times, MxPair=       342
 NAB=   171 NAA=     0 NBB=     0.
 Norm of the A-vectors is  2.5342262D-06 conv= 1.00D-06.
 RLE energy=       -1.1707029747
 DE(Z)  -0.11707030D+01          E(Z)=    -0.32285117556D+03
 NORM(A)=   0.11711462D+01
 Iteration Nr.  17
 **********************
 DD1Dir will call FoFMem   1 times, MxPair=       342
 NAB=   171 NAA=     0 NBB=     0.
 Norm of the A-vectors is  1.5923483D-06 conv= 1.00D-06.
 RLE energy=       -1.1707029748
 DE(Z)  -0.11707030D+01          E(Z)=    -0.32285117556D+03
 NORM(A)=   0.11711462D+01
 Iteration Nr.  18
 **********************
 DD1Dir will call FoFMem   1 times, MxPair=       342
 NAB=   171 NAA=     0 NBB=     0.
 Norm of the A-vectors is  1.1702501D-06 conv= 1.00D-06.
 RLE energy=       -1.1707029732
 DE(Z)  -0.11707030D+01          E(Z)=    -0.32285117556D+03
 NORM(A)=   0.11711461D+01
 Iteration Nr.  19
 **********************
 DD1Dir will call FoFMem   1 times, MxPair=       342
 NAB=   171 NAA=     0 NBB=     0.
 Norm of the A-vectors is  1.0988848D-06 conv= 1.00D-06.
 RLE energy=       -1.1707029741
 DE(Z)  -0.11707030D+01          E(Z)=    -0.32285117556D+03
 NORM(A)=   0.11711461D+01
 Iteration Nr.  20
 **********************
 DD1Dir will call FoFMem   1 times, MxPair=       342
 NAB=   171 NAA=     0 NBB=     0.
 Norm of the A-vectors is  1.0290927D-06 conv= 1.00D-06.
 RLE energy=       -1.1707029730
 DE(Z)  -0.11707030D+01          E(Z)=    -0.32285117556D+03
 NORM(A)=   0.11711461D+01
 Iteration Nr.  21
 **********************
 DD1Dir will call FoFMem   1 times, MxPair=       342
 NAB=   171 NAA=     0 NBB=     0.
 Norm of the A-vectors is  5.5624507D-07 conv= 1.00D-06.
 RLE energy=       -1.1707029734
 DE(Z)  -0.11707030D+01          E(Z)=    -0.32285117556D+03
 NORM(A)=   0.11711461D+01
 CI/CC converged in   21 iterations to DelEn=-4.23D-10 Conv= 1.00D-08 ErrA1= 5.56D-07 Conv= 1.00D-06
 Discarding MO integrals.
 Leave Link  913 at Fri Sep  3 16:59:46 2021, MaxMem=  6710886400 cpu:     38615.1
 (Enter /gpfs/share/home/1801110325/software/g09e01/l1111.exe)
 Selected functions:
 Compute CCSD 2PDM.
 Form Post-SCF non-separable gradient here.
 IO1PDM=    0 IOW=    0 IO2PDM=    0.
 MDV=6710886400.
 Frozen-core window:  NFC=   7 NFV=   0.
 Leave Link 1111 at Fri Sep  3 18:51:44 2021, MaxMem=  6710886400 cpu:    106733.3
 (Enter /gpfs/share/home/1801110325/software/g09e01/l1002.exe)
 Minotr:  Closed shell wavefunction.
          Computing CCSD/QCISD derivatives.
          Using Z-Vector for PSCF gradient.
          Skipping F1 and S1 gradient terms here.
          IDoAtm=111111111111
          Frozen-core window.
          Direct CPHF calculation.
          Differentiating once with respect to electric field.
                with respect to dipole field.
          Differentiating once with respect to nuclear coordinates.
          Using symmetry in CPHF.
          Requested convergence is 1.0D-10 RMS, and 1.0D-09 maximum.
          NewPWx=F KeepS1=T KeepF1=T KeepIn=T MapXYZ=F SortEE=F KeepMc=T.
          MDV=    6710886003 using IRadAn=       0.
 Keep R1 ints in memory in symmetry-blocked form, NReq=1167456184.
 FoFCou: FMM=F IPFlag=           0 FMFlag=           0 FMFlg1=           0
         NFxFlg=           0 DoJE=F BraDBF=F KetDBF=F FulRan=T
         wScrn=  0.000000 ICntrl=     600 IOpCl=  0 I1Cent=           0 NGrid=           0
         NMat0=    1 NMatS0=  39340 NMatT0=    0 NMatD0=    1 NMtDS0=    0 NMtDT0=    0
 Petite list used in FoFCou.
          Solving linear equations separately, MaxMat=       0.
          There are     1 degrees of freedom in the 1st order CPHF.  IDoFFX=0 NUNeed=     1.
 LinEq1:  Iter=  0 NonCon=     1 RMS=2.51D-03 Max=7.41D-02 NDo=     1
 AX will form     1 AO Fock derivatives at one time.
 LinEq1:  Iter=  1 NonCon=     1 RMS=8.50D-04 Max=2.05D-02 NDo=     1
 LinEq1:  Iter=  2 NonCon=     1 RMS=3.43D-04 Max=7.94D-03 NDo=     1
 LinEq1:  Iter=  3 NonCon=     1 RMS=1.70D-04 Max=4.90D-03 NDo=     1
 LinEq1:  Iter=  4 NonCon=     1 RMS=5.58D-05 Max=1.47D-03 NDo=     1
 LinEq1:  Iter=  5 NonCon=     1 RMS=1.57D-05 Max=3.73D-04 NDo=     1
 LinEq1:  Iter=  6 NonCon=     1 RMS=6.42D-06 Max=2.21D-04 NDo=     1
 LinEq1:  Iter=  7 NonCon=     1 RMS=2.70D-06 Max=7.71D-05 NDo=     1
 LinEq1:  Iter=  8 NonCon=     1 RMS=5.95D-07 Max=1.32D-05 NDo=     1
 LinEq1:  Iter=  9 NonCon=     1 RMS=1.54D-07 Max=3.09D-06 NDo=     1
 LinEq1:  Iter= 10 NonCon=     1 RMS=5.43D-08 Max=1.17D-06 NDo=     1
 LinEq1:  Iter= 11 NonCon=     1 RMS=1.57D-08 Max=3.16D-07 NDo=     1
 LinEq1:  Iter= 12 NonCon=     1 RMS=4.12D-09 Max=7.14D-08 NDo=     1
 LinEq1:  Iter= 13 NonCon=     1 RMS=1.35D-09 Max=3.00D-08 NDo=     1
 LinEq1:  Iter= 14 NonCon=     1 RMS=3.64D-10 Max=4.76D-09 NDo=     1
 LinEq1:  Iter= 15 NonCon=     1 RMS=7.73D-11 Max=1.28D-09 NDo=     1
 LinEq1:  Iter= 16 NonCon=     0 RMS=3.29D-11 Max=4.82D-10 NDo=     1
 Linear equations converged to 1.000D-10 1.000D-09 after    16 iterations.
 End of Minotr F.D. properties file   721 does not exist.
 End of Minotr F.D. properties file   722 does not exist.
 End of Minotr F.D. properties file   788 does not exist.
 Leave Link 1002 at Fri Sep  3 18:51:59 2021, MaxMem=  6710886400 cpu:       135.1
 (Enter /gpfs/share/home/1801110325/software/g09e01/l601.exe)
 Copying SCF densities to generalized density rwf, IOpCl= 0 IROHF=0.

 **********************************************************************

            Population analysis using the SCF density.

 **********************************************************************

 Orbital symmetries:
       Occupied  (A') (A') (A') (A') (A') (A') (A') (A') (A') (A')
                 (A') (A') (A') (A') (A') (A') (A') (A') (A") (A')
                 (A') (A") (A") (A') (A")
       Virtual   (A") (A') (A') (A') (A") (A') (A') (A') (A") (A')
                 (A') (A") (A') (A') (A") (A") (A') (A') (A") (A')
                 (A') (A') (A") (A') (A') (A') (A') (A') (A') (A')
                 (A") (A') (A') (A') (A') (A") (A') (A') (A') (A')
                 (A') (A') (A") (A') (A') (A') (A") (A') (A") (A")
                 (A') (A") (A') (A') (A") (A') (A') (A') (A') (A')
                 (A") (A') (A") (A") (A') (A') (A') (A') (A") (A")
                 (A') (A') (A') (A") (A") (A") (A') (A') (A") (A')
                 (A") (A') (A') (A") (A') (A") (A') (A') (A') (A")
                 (A") (A') (A') (A") (A') (A') (A') (A') (A") (A')
                 (A') (A') (A') (A') (A") (A") (A') (A') (A') (A')
                 (A") (A') (A') (A') (A') (A') (A") (A') (A') (A")
                 (A') (A') (A') (A") (A") (A') (A") (A") (A") (A')
                 (A') (A") (A') (A') (A") (A') (A") (A') (A') (A')
                 (A') (A') (A") (A') (A') (A") (A') (A') (A') (A')
                 (A') (A") (A") (A") (A") (A") (A') (A") (A") (A')
                 (A') (A") (A') (A') (A") (A') (A') (A') (A") (A')
                 (A") (A') (A') (A") (A") (A') (A') (A") (A") (A")
                 (A') (A") (A') (A") (A") (A') (A') (A") (A') (A")
                 (A') (A") (A") (A') (A') (A") (A') (A') (A") (A')
                 (A') (A") (A') (A") (A') (A') (A") (A') (A') (A')
                 (A") (A') (A") (A') (A") (A') (A') (A') (A") (A')
                 (A") (A') (A') (A") (A') (A") (A") (A') (A') (A')
                 (A') (A') (A") (A') (A') (A') (A') (A') (A") (A')
                 (A') (A') (A') (A") (A') (A') (A') (A') (A') (A')
                 (A') (A') (A') (A') (A')
 The electronic state is 1-A'.
 Alpha  occ. eigenvalues --  -20.50366 -15.62149 -11.35307 -11.31203 -11.27088
 Alpha  occ. eigenvalues --  -11.23953 -11.23694  -1.37798  -1.27748  -1.11094
 Alpha  occ. eigenvalues --   -1.03351  -0.89022  -0.86380  -0.75929  -0.69834
 Alpha  occ. eigenvalues --   -0.68040  -0.64175  -0.61534  -0.60804  -0.56247
 Alpha  occ. eigenvalues --   -0.54118  -0.48928  -0.42765  -0.42738  -0.31633
 Alpha virt. eigenvalues --    0.07860   0.08853   0.10556   0.12075   0.14658
 Alpha virt. eigenvalues --    0.14707   0.15138   0.24181   0.24666   0.24886
 Alpha virt. eigenvalues --    0.26375   0.28377   0.28532   0.29599   0.31327
 Alpha virt. eigenvalues --    0.31947   0.33702   0.35287   0.39240   0.40460
 Alpha virt. eigenvalues --    0.41653   0.41936   0.44057   0.44443   0.45080
 Alpha virt. eigenvalues --    0.47984   0.50901   0.52382   0.52783   0.54759
 Alpha virt. eigenvalues --    0.55031   0.57111   0.59790   0.61590   0.64407
 Alpha virt. eigenvalues --    0.64770   0.66517   0.69076   0.69307   0.76201
 Alpha virt. eigenvalues --    0.79627   0.80891   0.81981   0.84907   0.86049
 Alpha virt. eigenvalues --    0.87704   0.94343   0.96049   0.98409   0.99868
 Alpha virt. eigenvalues --    1.00986   1.03372   1.10071   1.11870   1.12968
 Alpha virt. eigenvalues --    1.16126   1.18139   1.19789   1.23396   1.28447
 Alpha virt. eigenvalues --    1.28758   1.31656   1.35090   1.35660   1.35772
 Alpha virt. eigenvalues --    1.36502   1.38975   1.40685   1.43766   1.47440
 Alpha virt. eigenvalues --    1.47813   1.50601   1.53556   1.53656   1.55976
 Alpha virt. eigenvalues --    1.61625   1.64048   1.65287   1.66232   1.67166
 Alpha virt. eigenvalues --    1.69606   1.70741   1.71511   1.77259   1.80486
 Alpha virt. eigenvalues --    1.80698   1.82640   1.86769   1.90356   1.91640
 Alpha virt. eigenvalues --    1.92405   1.92490   1.97775   1.98226   2.01200
 Alpha virt. eigenvalues --    2.05430   2.06594   2.12424   2.13571   2.15752
 Alpha virt. eigenvalues --    2.20234   2.23777   2.29743   2.30610   2.31442
 Alpha virt. eigenvalues --    2.37145   2.37973   2.44802   2.45092   2.51251
 Alpha virt. eigenvalues --    2.54070   2.54513   2.57322   2.57851   2.61730
 Alpha virt. eigenvalues --    2.72602   2.90400   2.93996   2.96550   3.18840
 Alpha virt. eigenvalues --    3.21862   3.26934   3.27385   3.27463   3.50040
 Alpha virt. eigenvalues --    3.52067   3.53680   3.55215   3.56826   3.59193
 Alpha virt. eigenvalues --    3.61472   3.64061   3.66960   3.68601   3.71772
 Alpha virt. eigenvalues --    3.77048   3.80918   3.84142   3.87974   3.89973
 Alpha virt. eigenvalues --    3.92508   3.97379   3.99928   4.00841   4.02339
 Alpha virt. eigenvalues --    4.03500   4.05461   4.11975   4.21120   4.22865
 Alpha virt. eigenvalues --    4.26458   4.28451   4.29394   4.30797   4.32374
 Alpha virt. eigenvalues --    4.36700   4.37131   4.38725   4.41837   4.42980
 Alpha virt. eigenvalues --    4.45316   4.45775   4.48569   4.50492   4.52842
 Alpha virt. eigenvalues --    4.54295   4.55707   4.56444   4.58468   4.59737
 Alpha virt. eigenvalues --    4.61115   4.62132   4.63447   4.65087   4.66930
 Alpha virt. eigenvalues --    4.66972   4.67662   4.68245   4.69460   4.74717
 Alpha virt. eigenvalues --    4.76666   4.80010   4.81189   4.82226   4.82900
 Alpha virt. eigenvalues --    4.84292   4.85437   4.86399   4.91412   4.92702
 Alpha virt. eigenvalues --    4.93585   4.93597   4.96144   4.97673   5.03542
 Alpha virt. eigenvalues --    5.07325   5.09610   5.12072   5.19702   5.22229
 Alpha virt. eigenvalues --    5.24962   5.28237   5.29418   5.32467   5.35066
 Alpha virt. eigenvalues --    5.36767   5.45220   5.48227   5.51698   5.55497
 Alpha virt. eigenvalues --    5.58866   5.61123   5.66360   5.69003   5.71036
 Alpha virt. eigenvalues --    5.72654   5.77117   5.78310   5.79737   5.83228
 Alpha virt. eigenvalues --    5.86949   5.91074   5.92903   5.95165   5.99377
 Alpha virt. eigenvalues --    5.99574   6.08655   6.09344   6.10449   6.18632
 Alpha virt. eigenvalues --    6.22403   6.30161   6.34196   6.39212   6.47254
 Alpha virt. eigenvalues --    6.48606   6.52473   6.65103   6.68729   6.71964
 Alpha virt. eigenvalues --    6.79541   6.91641   6.97115   7.04468   7.25269
 Alpha virt. eigenvalues --    7.44481   7.47843   7.63873   9.89641  12.72778
 Alpha virt. eigenvalues --   13.65805  15.24181  18.50661  19.00022  23.58106
          Condensed to atoms (all electrons):
               1          2          3          4          5          6
     1  O    8.165407  -0.102732   0.580803  -0.032297   0.003853   0.002653
     2  N   -0.102732   6.472399   0.400864  -0.032861   0.364492  -0.025361
     3  C    0.580803   0.400864   4.054812   0.458078  -0.039540  -0.029084
     4  C   -0.032297  -0.032861   0.458078   4.792660  -0.034973   0.614865
     5  C    0.003853   0.364492  -0.039540  -0.034973   4.363888  -0.081188
     6  C    0.002653  -0.025361  -0.029084   0.614865  -0.081188   4.514362
     7  C    0.002519  -0.048824  -0.017900  -0.067587   0.686907   0.461981
     8  H    0.007873   0.413492  -0.014870   0.008101  -0.022008  -0.003023
     9  H    0.002996   0.003942  -0.027068   0.446101  -0.000198  -0.022926
    10  H   -0.000749  -0.037122  -0.000043  -0.003580   0.418925   0.005483
    11  H   -0.000354  -0.001864   0.003210  -0.018997   0.003829   0.419794
    12  H    0.000033   0.004741  -0.000348   0.002086  -0.019567  -0.016753
               7          8          9         10         11         12
     1  O    0.002519   0.007873   0.002996  -0.000749  -0.000354   0.000033
     2  N   -0.048824   0.413492   0.003942  -0.037122  -0.001864   0.004741
     3  C   -0.017900  -0.014870  -0.027068  -0.000043   0.003210  -0.000348
     4  C   -0.067587   0.008101   0.446101  -0.003580  -0.018997   0.002086
     5  C    0.686907  -0.022008  -0.000198   0.418925   0.003829  -0.019567
     6  C    0.461981  -0.003023  -0.022926   0.005483   0.419794  -0.016753
     7  C    4.753443   0.004637   0.002069  -0.015049  -0.029674   0.437049
     8  H    0.004637   0.447623  -0.000217  -0.006478   0.000154  -0.000221
     9  H    0.002069  -0.000217   0.597720   0.000137  -0.003369  -0.000402
    10  H   -0.015049  -0.006478   0.000137   0.610733  -0.000362  -0.000948
    11  H   -0.029674   0.000154  -0.003369  -0.000362   0.618540  -0.002801
    12  H    0.437049  -0.000221  -0.000402  -0.000948  -0.002801   0.607756
 Mulliken charges:
               1
     1  O   -0.630004
     2  N   -0.411166
     3  C    0.631086
     4  C   -0.131596
     5  C    0.355579
     6  C    0.159198
     7  C   -0.169571
     8  H    0.164937
     9  H    0.001216
    10  H    0.029051
    11  H    0.011892
    12  H   -0.010622
 Sum of Mulliken charges =  -0.00000
 Mulliken charges with hydrogens summed into heavy atoms:
               1
     1  O   -0.630004
     2  N   -0.246229
     3  C    0.631086
     4  C   -0.130380
     5  C    0.384630
     6  C    0.171090
     7  C   -0.180194
 Electronic spatial extent (au):  <R**2>=            632.1908
 Charge=             -0.0000 electrons
 Dipole moment (field-independent basis, Debye):
    X=             -1.1783    Y=             -4.7773    Z=             -0.0000  Tot=              4.9204
 Quadrupole moment (field-independent basis, Debye-Ang):
   XX=            -30.9796   YY=            -49.1194   ZZ=            -43.8452
   XY=              0.1878   XZ=              0.0000   YZ=             -0.0000
 Traceless Quadrupole moment (field-independent basis, Debye-Ang):
   XX=             10.3351   YY=             -7.8046   ZZ=             -2.5305
   XY=              0.1878   XZ=              0.0000   YZ=             -0.0000
 Octapole moment (field-independent basis, Debye-Ang**2):
  XXX=            -12.3596  YYY=            -33.6325  ZZZ=             -0.0000  XYY=              0.5552
  XXY=             -0.1690  XXZ=             -0.0000  XZZ=             -2.4049  YZZ=              5.7506
  YYZ=             -0.0000  XYZ=             -0.0000
 Hexadecapole moment (field-independent basis, Debye-Ang**3):
 XXXX=           -232.0616 YYYY=           -553.3429 ZZZZ=            -48.7649 XXXY=              2.5508
 XXXZ=             -0.0000 YYYX=              7.9885 YYYZ=              0.0000 ZZZX=             -0.0000
 ZZZY=              0.0000 XXYY=           -114.6254 XXZZ=            -61.7361 YYZZ=            -98.6781
 XXYZ=             -0.0000 YYXZ=             -0.0000 ZZXY=              1.1406
 N-N= 2.755178949531D+02 E-N=-1.303969444657D+03  KE= 3.212906613367D+02
 Symmetry A'   KE= 3.103888291307D+02
 Symmetry A"   KE= 1.090183220603D+01
 No NMR shielding tensors so no spin-rotation constants.
 Leave Link  601 at Fri Sep  3 18:52:00 2021, MaxMem=  6710886400 cpu:         6.8
 (Enter /gpfs/share/home/1801110325/software/g09e01/l701.exe)
 Compute integral first derivatives.
 ... and contract with generalized density number  7.
 Leave Link  701 at Fri Sep  3 18:52:00 2021, MaxMem=  6710886400 cpu:         8.3
 (Enter /gpfs/share/home/1801110325/software/g09e01/l702.exe)
 L702 exits ... SP integral derivatives will be done elsewhere.
 Leave Link  702 at Fri Sep  3 18:52:00 2021, MaxMem=  6710886400 cpu:         0.3
 (Enter /gpfs/share/home/1801110325/software/g09e01/l703.exe)
 Compute integral first derivatives, UseDBF=F ICtDFT=           0.
 Integral derivatives from FoFJK, PRISM(SPDF).
 Calling FoFJK, ICntrl=  10002127 FMM=F ISym2X=1 I1Cent= 0 IOpClX= 0 NMat=1 NMatS=1 NMatT=0.
 FoFJK:  IHMeth= 1 ICntrl=10002127 DoSepK=F KAlg= 0 I1Cent=   0 FoldK=F
 IRaf=         0 NMat=   1 IRICut=       1 DoRegI=T DoRafI=F ISym2E= 1.
 FoFCou: FMM=F IPFlag=           0 FMFlag=      100000 FMFlg1=         800
         NFxFlg=           0 DoJE=F BraDBF=F KetDBF=F FulRan=T
         wScrn=  0.000000 ICntrl=10002127 IOpCl=  0 I1Cent=           0 NGrid=           0
         NMat0=    1 NMatS0=      1 NMatT0=    0 NMatD0=    1 NMtDS0=    0 NMtDT0=    0
 Petite list used in FoFCou.
 Leave Link  703 at Fri Sep  3 18:52:09 2021, MaxMem=  6710886400 cpu:       134.4
 (Enter /gpfs/share/home/1801110325/software/g09e01/l716.exe)
 Dipole        =-4.33502796D-01-1.65955677D+00-1.06342242D-31
 ***** Axes restored to original set *****
 -------------------------------------------------------------------
 Center     Atomic                   Forces (Hartrees/Bohr)
 Number     Number              X              Y              Z
 -------------------------------------------------------------------
      1        8           0.002732233   -0.012214296    0.000000000
      2        7           0.003037104    0.011462750   -0.000000000
      3        6          -0.014517774    0.004355989   -0.000000000
      4        6           0.005869414   -0.004627768    0.000000000
      5        6           0.005493039   -0.005667911    0.000000000
      6        6           0.004690856    0.007491305   -0.000000000
      7        6          -0.010110045   -0.002528641   -0.000000000
      8        1           0.004623409   -0.002268922    0.000000000
      9        1          -0.001999680   -0.001539331   -0.000000000
     10        1           0.002539032    0.001048552    0.000000000
     11        1          -0.002175973    0.001841707   -0.000000000
     12        1          -0.000181616    0.002646566   -0.000000000
 -------------------------------------------------------------------
 Cartesian Forces:  Max     0.014517774 RMS     0.004965188
 Leave Link  716 at Fri Sep  3 18:52:09 2021, MaxMem=  6710886400 cpu:         1.3
 (Enter /gpfs/share/home/1801110325/software/g09e01/l103.exe)

 GradGradGradGradGradGradGradGradGradGradGradGradGradGradGradGradGradGrad
 Berny optimization.
 FormGI is forming the generalized inverse of G from B-inverse, IUseBI=4.
 Internal  Forces:  Max     0.012443175 RMS     0.002981288
 Search for a local minimum.
 Step number   1 out of a maximum of   64
 All quantities printed in internal units (Hartrees-Bohrs-Radians)
 RMS Force = .29813D-02 SwitMx=.10000D-02 MixMth= 1
 Mixed Optimization -- RFO/linear search
 Second derivative matrix not updated -- first step.
 ITU=  0
     Eigenvalues ---    0.01516   0.01697   0.01896   0.02004   0.02107
[...]
 DIIS: error= 7.14D-06 at cycle   3 NSaved=   3.
 NSaved= 3 IEnMin= 3 EnMin= -321.682727158870     IErMin= 3 ErrMin= 7.14D-06
 ErrMax= 7.14D-06  0.00D+00 EMaxC= 1.00D-01 BMatC= 4.02D-09 BMatP= 2.69D-08
 IDIUse=1 WtCom= 1.00D+00 WtEn= 0.00D+00
 Coeff-Com: -0.555D-01 0.204D+00 0.852D+00
 Coeff:     -0.555D-01 0.204D+00 0.852D+00
 Gap=     0.400 Goal=   None    Shift=    0.000
 RMSDP=2.55D-07 MaxDP=1.03D-05 DE=-4.42D-08 OVMax= 3.70D-05

 Cycle   4  Pass 1  IDiag  1:
 E= -321.682727166019     Delta-E=       -0.000000007149 Rises=F Damp=F
 DIIS: error= 2.18D-06 at cycle   4 NSaved=   4.
 NSaved= 4 IEnMin= 4 EnMin= -321.682727166019     IErMin= 4 ErrMin= 2.18D-06
 ErrMax= 2.18D-06  0.00D+00 EMaxC= 1.00D-01 BMatC= 7.52D-10 BMatP= 4.02D-09
 IDIUse=1 WtCom= 1.00D+00 WtEn= 0.00D+00
 Coeff-Com:  0.112D-01-0.140D+00 0.126D+00 0.100D+01
 Coeff:      0.112D-01-0.140D+00 0.126D+00 0.100D+01
 Gap=     0.400 Goal=   None    Shift=    0.000
 RMSDP=1.48D-07 MaxDP=4.64D-06 DE=-7.15D-09 OVMax= 2.70D-05

 Cycle   5  Pass 1  IDiag  1:
 E= -321.682727167939     Delta-E=       -0.000000001920 Rises=F Damp=F
 DIIS: error= 1.29D-06 at cycle   5 NSaved=   5.
 NSaved= 5 IEnMin= 5 EnMin= -321.682727167939     IErMin= 5 ErrMin= 1.29D-06
 ErrMax= 1.29D-06  0.00D+00 EMaxC= 1.00D-01 BMatC= 9.13D-11 BMatP= 7.52D-10
 IDIUse=1 WtCom= 1.00D+00 WtEn= 0.00D+00
 Coeff-Com:  0.592D-02-0.323D-01-0.516D-01 0.280D-01 0.105D+01
 Coeff:      0.592D-02-0.323D-01-0.516D-01 0.280D-01 0.105D+01
 Gap=     0.400 Goal=   None    Shift=    0.000
 RMSDP=7.03D-08 MaxDP=2.19D-06 DE=-1.92D-09 OVMax= 1.45D-05

 Cycle   6  Pass 1  IDiag  1:
 E= -321.682727168344     Delta-E=       -0.000000000406 Rises=F Damp=F
 DIIS: error= 5.08D-07 at cycle   6 NSaved=   6.
 NSaved= 6 IEnMin= 6 EnMin= -321.682727168344     IErMin= 6 ErrMin= 5.08D-07
 ErrMax= 5.08D-07  0.00D+00 EMaxC= 1.00D-01 BMatC= 2.65D-11 BMatP= 9.13D-11
 IDIUse=1 WtCom= 1.00D+00 WtEn= 0.00D+00
 Coeff-Com: -0.283D-02 0.364D-01-0.218D-01-0.298D+00-0.128D-01 0.130D+01
 Coeff:     -0.283D-02 0.364D-01-0.218D-01-0.298D+00-0.128D-01 0.130D+01
 Gap=     0.400 Goal=   None    Shift=    0.000
 RMSDP=5.64D-08 MaxDP=1.69D-06 DE=-4.06D-10 OVMax= 1.22D-05

 Cycle   7  Pass 1  IDiag  1:
 E= -321.682727168501     Delta-E=       -0.000000000156 Rises=F Damp=F
 DIIS: error= 1.62D-07 at cycle   7 NSaved=   7.
 NSaved= 7 IEnMin= 7 EnMin= -321.682727168501     IErMin= 7 ErrMin= 1.62D-07
 ErrMax= 1.62D-07  0.00D+00 EMaxC= 1.00D-01 BMatC= 2.78D-12 BMatP= 2.65D-11
 IDIUse=1 WtCom= 1.00D+00 WtEn= 0.00D+00
 Coeff-Com: -0.748D-03 0.367D-02 0.133D-01-0.157D-02-0.159D+00-0.176D-01
 Coeff-Com:  0.116D+01
 Coeff:     -0.748D-03 0.367D-02 0.133D-01-0.157D-02-0.159D+00-0.176D-01
 Coeff:      0.116D+01
 Gap=     0.400 Goal=   None    Shift=    0.000
 RMSDP=1.71D-08 MaxDP=5.05D-07 DE=-1.56D-10 OVMax= 3.77D-06

 Cycle   8  Pass 1  IDiag  1:
 E= -321.682727168509     Delta-E=       -0.000000000008 Rises=F Damp=F
 DIIS: error= 5.22D-08 at cycle   8 NSaved=   8.
 NSaved= 8 IEnMin= 8 EnMin= -321.682727168509     IErMin= 8 ErrMin= 5.22D-08
 ErrMax= 5.22D-08  0.00D+00 EMaxC= 1.00D-01 BMatC= 6.07D-13 BMatP= 2.78D-12
 IDIUse=1 WtCom= 1.00D+00 WtEn= 0.00D+00
 Coeff-Com:  0.123D-03-0.365D-02 0.791D-02 0.383D-01-0.604D-01-0.163D+00
 Coeff-Com:  0.364D+00 0.817D+00
 Coeff:      0.123D-03-0.365D-02 0.791D-02 0.383D-01-0.604D-01-0.163D+00
 Coeff:      0.364D+00 0.817D+00
 Gap=     0.400 Goal=   None    Shift=    0.000
 RMSDP=4.77D-09 MaxDP=1.31D-07 DE=-8.07D-12 OVMax= 8.84D-07

 SCF Done:  E(RHF) =  -321.682727169     A.U. after    8 cycles
            NFock=  8  Conv=0.48D-08     -V/T= 2.0009
 KE= 3.214022188646D+02 PE=-1.305509119967D+03 EE= 3.861887072294D+02
 Leave Link  502 at Tue Sep  7 16:07:19 2021, MaxMem=  6710886400 cpu:        84.5
 (Enter /gpfs/share/home/1801110325/software/g09e01/l801.exe)
 Windowed orbitals will be sorted by symmetry type.
 ExpMin= 7.41D-02 ExpMax= 1.48D+04 ExpMxC= 5.05D+02 IAcc=3 IRadAn=         5 AccDes= 0.00D+00
 HarFok:  IExCor=  205 AccDes= 0.00D+00 IRadAn=         5 IDoV=-2 UseB2=F ITyADJ=14
 ICtDFT= 12500011 ScaDFX=  1.000000  1.000000  1.000000  1.000000
 Largest valence mixing into a core orbital is  1.08D-04
 Largest core mixing into a valence orbital is  4.22D-05
 Range of M.O.s used for correlation:     8   280
 NBasis=   280 NAE=    25 NBE=    25 NFC=     7 NFV=     0
 NROrb=    273 NOA=    18 NOB=    18 NVA=   255 NVB=   255

 **** Warning!!: The largest alpha MO coefficient is  0.15666688D+02

 Leave Link  801 at Tue Sep  7 16:07:19 2021, MaxMem=  6710886400 cpu:         0.5
 (Enter /gpfs/share/home/1801110325/software/g09e01/l804.exe)
 Closed-shell transformation, MDV=  6710886400 ITran=4 ISComp=1.
 Semi-Direct transformation.
 ModeAB=           4 MOrb=            18 LenV=    6708684681
 LASXX=    175384206 LTotXX=   175384206 LenRXX=   352665477
 LTotAB=   177281271 MaxLAS=   249326532 LenRXY=           0
 NonZer=   528049683 LenScr=   792718416 LnRSAI=   249326532
 LnScr1=   374339252 LExtra=           0 Total=   1769049677
 MaxDsk=          -1 SrtSym=           T ITran=            4
 DoSDTr:  NPSUse= 16
 JobTyp=0 Pass  1:  I=   1 to  18.
 (rs|ai) integrals will be sorted in core.
 Complete sort for first half transformation.
 First half transformation complete.
 Begin second half transformation for I=  10.
 Complete sort for second half transformation.
 Second half transformation complete.
 Spin components of T(2) and E(2):
     alpha-alpha T2 =       0.5056039267D-01 E2=     -0.1533110054D+00
     alpha-beta  T2 =       0.2701378057D+00 E2=     -0.8872778974D+00
     beta-beta   T2 =       0.5056039267D-01 E2=     -0.1533110054D+00
 ANorm=    0.1171007511D+01
 E2 =    -0.1193899908D+01 EUMP2 =    -0.32287662707680D+03
 Leave Link  804 at Tue Sep  7 16:08:21 2021, MaxMem=  6710886400 cpu:       989.0
 (Enter /gpfs/share/home/1801110325/software/g09e01/l913.exe)
 CIDS:  MDV=  6710886400.
 Frozen-core window:  NFC=   7 NFV=   0.
 IFCWin=0 IBDFC=1 NFBD=     0     0 NFCmp=     0     0 NFFFC=     0     0
 Using DD3R+UMP44R for 1st iteration, S=T.
 Using DD4RQ for 2nd and later iterations.
 Keep R2 and R3 ints in memory in canonical form, NReq=1564214698.
 FoFCou: FMM=F IPFlag=           0 FMFlag=           0 FMFlg1=           0
         NFxFlg=           0 DoJE=F BraDBF=F KetDBF=F FulRan=T
         wScrn=  0.000000 ICntrl=     600 IOpCl=  0 I1Cent=           0 NGrid=           0
         NMat0=    1 NMatS0=  39340 NMatT0=    0 NMatD0=    1 NMtDS0=    0 NMtDT0=    0
 Symmetry not used in FoFCou.
 Coupled Cluster theory with single and double substitutions
 ===========================================================
 Iterations=  50 Convergence= 0.100D-07
 Iteration Nr.   1
 **********************
 DD1Dir will call FoFMem   1 times, MxPair=       342
 NAB=   171 NAA=     0 NBB=     0.
 MP4(R+Q)=  0.34211743D-01
 Maximum subspace dimension=  5
 Norm of the A-vectors is  2.1262719D+00 conv= 1.00D-06.
 RLE energy=       -1.1745220248
 E3=       -0.15200922D-01        EUMP3=      -0.32289182800D+03
 E4(DQ)=    0.77435045D-02        UMP4(DQ)=   -0.32288408449D+03
 E4(SDQ)=  -0.62824922D-02        UMP4(SDQ)=  -0.32289811049D+03
 VARIATIONAL ENERGIES WITH THE FIRST-ORDER WAVEFUNCTION:
 DE(Corr)=  -1.1742027     E(Corr)=     -322.85692988    
 NORM(A)=   0.11680606D+01
 Iteration Nr.   2
 **********************
 DD1Dir will call FoFMem   1 times, MxPair=       342
 NAB=   171 NAA=     0 NBB=     0.
 Norm of the A-vectors is  7.7644988D-01 conv= 1.00D-06.
 RLE energy=       -1.2104632861
 DE(Corr)=  -1.2102422     E(CORR)=     -322.89296938     Delta=-3.60D-02
 NORM(A)=   0.11815679D+01
 Iteration Nr.   3
 **********************
 DD1Dir will call FoFMem   1 times, MxPair=       342
 NAB=   171 NAA=     0 NBB=     0.
 Norm of the A-vectors is  2.2526496D-01 conv= 1.00D-06.
 RLE energy=       -1.2123152047
 DE(Corr)=  -1.2090927     E(CORR)=     -322.89181983     Delta= 1.15D-03
 NORM(A)=   0.11852872D+01
 Iteration Nr.   4
 **********************
 DD1Dir will call FoFMem   1 times, MxPair=       342
 NAB=   171 NAA=     0 NBB=     0.
 Norm of the A-vectors is  1.0219132D-01 conv= 1.00D-06.
 RLE energy=       -1.2125372299
 DE(Corr)=  -1.2122777     E(CORR)=     -322.89500486     Delta=-3.19D-03
 NORM(A)=   0.11865941D+01
 Iteration Nr.   5
 **********************
 DD1Dir will call FoFMem   1 times, MxPair=       342
 NAB=   171 NAA=     0 NBB=     0.
 Norm of the A-vectors is  3.1634234D-02 conv= 1.00D-06.
 RLE energy=       -1.2127542551
 DE(Corr)=  -1.2126853     E(CORR)=     -322.89541246     Delta=-4.08D-04
 NORM(A)=   0.11871371D+01
 Iteration Nr.   6
 **********************
 DD1Dir will call FoFMem   1 times, MxPair=       342
 NAB=   171 NAA=     0 NBB=     0.
 Norm of the A-vectors is  1.4766958D-02 conv= 1.00D-06.
 RLE energy=       -1.2127844467
 DE(Corr)=  -1.2127415     E(CORR)=     -322.89546870     Delta=-5.62D-05
 NORM(A)=   0.11872634D+01
 Iteration Nr.   7
 **********************
 DD1Dir will call FoFMem   1 times, MxPair=       342
 NAB=   171 NAA=     0 NBB=     0.
 Norm of the A-vectors is  5.6389386D-03 conv= 1.00D-06.
 RLE energy=       -1.2127139970
 DE(Corr)=  -1.2127448     E(CORR)=     -322.89547192     Delta=-3.22D-06
 NORM(A)=   0.11872623D+01
 Iteration Nr.   8
 **********************
 DD1Dir will call FoFMem   1 times, MxPair=       342
 NAB=   171 NAA=     0 NBB=     0.
 Norm of the A-vectors is  2.4852614D-03 conv= 1.00D-06.
 RLE energy=       -1.2127452185
 DE(Corr)=  -1.2127480     E(CORR)=     -322.89547517     Delta=-3.25D-06
 NORM(A)=   0.11872781D+01
 Iteration Nr.   9
 **********************
 DD1Dir will call FoFMem   1 times, MxPair=       342
 NAB=   171 NAA=     0 NBB=     0.
 Norm of the A-vectors is  1.0463626D-03 conv= 1.00D-06.
 RLE energy=       -1.2127405617
 DE(Corr)=  -1.2127417     E(CORR)=     -322.89546883     Delta= 6.35D-06
 NORM(A)=   0.11872777D+01
 Iteration Nr.  10
 **********************
 DD1Dir will call FoFMem   1 times, MxPair=       342
 NAB=   171 NAA=     0 NBB=     0.
 Norm of the A-vectors is  5.5085341D-04 conv= 1.00D-06.
 RLE energy=       -1.2127447149
 DE(Corr)=  -1.2127451     E(CORR)=     -322.89547231     Delta=-3.48D-06
 NORM(A)=   0.11872787D+01
 Iteration Nr.  11
 **********************
 DD1Dir will call FoFMem   1 times, MxPair=       342
 NAB=   171 NAA=     0 NBB=     0.
 Norm of the A-vectors is  2.7730458D-04 conv= 1.00D-06.
 RLE energy=       -1.2127450660
 DE(Corr)=  -1.2127445     E(CORR)=     -322.89547165     Delta= 6.56D-07
 NORM(A)=   0.11872798D+01
 Iteration Nr.  12
 **********************
 DD1Dir will call FoFMem   1 times, MxPair=       342
 NAB=   171 NAA=     0 NBB=     0.
 Norm of the A-vectors is  1.5241111D-04 conv= 1.00D-06.
 RLE energy=       -1.2127456235
 DE(Corr)=  -1.2127455     E(CORR)=     -322.89547270     Delta=-1.05D-06
 NORM(A)=   0.11872804D+01
 Iteration Nr.  13
 **********************
 DD1Dir will call FoFMem   1 times, MxPair=       342
 NAB=   171 NAA=     0 NBB=     0.
 Norm of the A-vectors is  7.3373426D-05 conv= 1.00D-06.
 RLE energy=       -1.2127458214
 DE(Corr)=  -1.2127457     E(CORR)=     -322.89547283     Delta=-1.34D-07
 NORM(A)=   0.11872809D+01
 Iteration Nr.  14
 **********************
 DD1Dir will call FoFMem   1 times, MxPair=       342
 NAB=   171 NAA=     0 NBB=     0.
 Norm of the A-vectors is  3.9607256D-05 conv= 1.00D-06.
 RLE energy=       -1.2127458442
 DE(Corr)=  -1.2127458     E(CORR)=     -322.89547296     Delta=-1.24D-07
 NORM(A)=   0.11872811D+01
 Iteration Nr.  15
 **********************
 DD1Dir will call FoFMem   1 times, MxPair=       342
 NAB=   171 NAA=     0 NBB=     0.
 Norm of the A-vectors is  1.5898714D-05 conv= 1.00D-06.
 RLE energy=       -1.2127458336
 DE(Corr)=  -1.2127458     E(CORR)=     -322.89547300     Delta=-4.11D-08
 NORM(A)=   0.11872812D+01
 Iteration Nr.  16
 **********************
 DD1Dir will call FoFMem   1 times, MxPair=       342
 NAB=   171 NAA=     0 NBB=     0.
 Norm of the A-vectors is  8.8821953D-06 conv= 1.00D-06.
 RLE energy=       -1.2127458531
 DE(Corr)=  -1.2127458     E(CORR)=     -322.89547302     Delta=-1.65D-08
 NORM(A)=   0.11872812D+01
 Iteration Nr.  17
 **********************
 DD1Dir will call FoFMem   1 times, MxPair=       342
 NAB=   171 NAA=     0 NBB=     0.
 Norm of the A-vectors is  4.3270073D-06 conv= 1.00D-06.
 RLE energy=       -1.2127458392
 DE(Corr)=  -1.2127458     E(CORR)=     -322.89547301     Delta= 6.99D-09
 NORM(A)=   0.11872813D+01
 Iteration Nr.  18
 **********************
 DD1Dir will call FoFMem   1 times, MxPair=       342
 NAB=   171 NAA=     0 NBB=     0.
 Norm of the A-vectors is  2.6323195D-06 conv= 1.00D-06.
 RLE energy=       -1.2127458454
 DE(Corr)=  -1.2127458     E(CORR)=     -322.89547302     Delta=-6.18D-09
 NORM(A)=   0.11872813D+01
 Iteration Nr.  19
 **********************
 DD1Dir will call FoFMem   1 times, MxPair=       342
 NAB=   171 NAA=     0 NBB=     0.
 Norm of the A-vectors is  1.3547102D-06 conv= 1.00D-06.
 RLE energy=       -1.2127458440
 DE(Corr)=  -1.2127458     E(CORR)=     -322.89547301     Delta= 2.72D-09
 NORM(A)=   0.11872813D+01
 Iteration Nr.  20
 **********************
 DD1Dir will call FoFMem   1 times, MxPair=       342
 NAB=   171 NAA=     0 NBB=     0.
 Norm of the A-vectors is  1.0924121D-06 conv= 1.00D-06.
 RLE energy=       -1.2127458463
 DE(Corr)=  -1.2127458     E(CORR)=     -322.89547301     Delta=-2.14D-09
 NORM(A)=   0.11872813D+01
 Iteration Nr.  21
 **********************
 DD1Dir will call FoFMem   1 times, MxPair=       342
 NAB=   171 NAA=     0 NBB=     0.
 Norm of the A-vectors is  5.9272456D-07 conv= 1.00D-06.
 RLE energy=       -1.2127458456
 DE(Corr)=  -1.2127458     E(CORR)=     -322.89547301     Delta= 4.67D-10
 NORM(A)=   0.11872813D+01
 CI/CC converged in   21 iterations to DelEn= 4.67D-10 Conv= 1.00D-08 ErrA1= 5.93D-07 Conv= 1.00D-06
 Largest amplitude= 5.95D-02

 Z-AMPLITUDE ITERATIONS

 Iteration Nr.   1
 **********************
 DD1Dir will call FoFMem   1 times, MxPair=       342
 NAB=   171 NAA=     0 NBB=     0.
 Norm of the A-vectors is  5.2802919D-01 conv= 1.00D-06.
 RLE energy=       -1.2220226857
 DE(Z)  -0.11720423D+01          E(Z)=    -0.32285476947D+03
 NORM(A)=   0.11910508D+01
 Iteration Nr.   2
 **********************
 DD1Dir will call FoFMem   1 times, MxPair=       342
 NAB=   171 NAA=     0 NBB=     0.
 Norm of the A-vectors is  6.4693860D-01 conv= 1.00D-06.
 RLE energy=       -1.2087002267
 DE(Z)  -0.11727669D+01          E(Z)=    -0.32285549410D+03
 NORM(A)=   0.11856723D+01
 Iteration Nr.   3
 **********************
 DD1Dir will call FoFMem   1 times, MxPair=       342
 NAB=   171 NAA=     0 NBB=     0.
 Norm of the A-vectors is  4.7858302D-01 conv= 1.00D-06.
 RLE energy=       -1.2013896132
 DE(Z)  -0.11718422D+01          E(Z)=    -0.32285456941D+03
 NORM(A)=   0.11826432D+01
 Iteration Nr.   4
 **********************
 DD1Dir will call FoFMem   1 times, MxPair=       342
 NAB=   171 NAA=     0 NBB=     0.
 Norm of the A-vectors is  3.8794669D-01 conv= 1.00D-06.
 RLE energy=       -1.1686412752
 DE(Z)  -0.11713701D+01          E(Z)=    -0.32285409729D+03
 NORM(A)=   0.11700957D+01
 Iteration Nr.   5
 **********************
 DD1Dir will call FoFMem   1 times, MxPair=       342
 NAB=   171 NAA=     0 NBB=     0.
 Norm of the A-vectors is  1.3146042D-02 conv= 1.00D-06.
 RLE energy=       -1.1694875190
 DE(Z)  -0.11694473D+01          E(Z)=    -0.32285217448D+03
 NORM(A)=   0.11703362D+01
 Iteration Nr.   6
 **********************
 DD1Dir will call FoFMem   1 times, MxPair=       342
 NAB=   171 NAA=     0 NBB=     0.
 Norm of the A-vectors is  3.9682131D-03 conv= 1.00D-06.
 RLE energy=       -1.1695014707
 DE(Z)  -0.11695019D+01          E(Z)=    -0.32285222902D+03
 NORM(A)=   0.11703300D+01
 Iteration Nr.   7
 **********************
 DD1Dir will call FoFMem   1 times, MxPair=       342
 NAB=   171 NAA=     0 NBB=     0.
 Norm of the A-vectors is  1.6981817D-03 conv= 1.00D-06.
 RLE energy=       -1.1694956816
 DE(Z)  -0.11694930D+01          E(Z)=    -0.32285222017D+03
 NORM(A)=   0.11703221D+01
 Iteration Nr.   8
 **********************
 DD1Dir will call FoFMem   1 times, MxPair=       342
 NAB=   171 NAA=     0 NBB=     0.
 Norm of the A-vectors is  6.8479274D-04 conv= 1.00D-06.
 RLE energy=       -1.1694963381
 DE(Z)  -0.11694961D+01          E(Z)=    -0.32285222325D+03
 NORM(A)=   0.11703246D+01
 Iteration Nr.   9
 **********************
 DD1Dir will call FoFMem   1 times, MxPair=       342
 NAB=   171 NAA=     0 NBB=     0.
 Norm of the A-vectors is  3.3071812D-04 conv= 1.00D-06.
 RLE energy=       -1.1694957033
 DE(Z)  -0.11694963D+01          E(Z)=    -0.32285222345D+03
 NORM(A)=   0.11703256D+01
 Iteration Nr.  10
 **********************
 DD1Dir will call FoFMem   1 times, MxPair=       342
 NAB=   171 NAA=     0 NBB=     0.
 Norm of the A-vectors is  1.8295329D-04 conv= 1.00D-06.
 RLE energy=       -1.1694971539
 DE(Z)  -0.11694969D+01          E(Z)=    -0.32285222406D+03
 NORM(A)=   0.11703273D+01
 Iteration Nr.  11
 **********************
 DD1Dir will call FoFMem   1 times, MxPair=       342
 NAB=   171 NAA=     0 NBB=     0.
 Norm of the A-vectors is  5.8991111D-05 conv= 1.00D-06.
 RLE energy=       -1.1694966681
 DE(Z)  -0.11694966D+01          E(Z)=    -0.32285222380D+03
 NORM(A)=   0.11703274D+01
 Iteration Nr.  12
 **********************
 DD1Dir will call FoFMem   1 times, MxPair=       342
 NAB=   171 NAA=     0 NBB=     0.
 Norm of the A-vectors is  2.4550802D-05 conv= 1.00D-06.
 RLE energy=       -1.1694969393
 DE(Z)  -0.11694969D+01          E(Z)=    -0.32285222408D+03
 NORM(A)=   0.11703276D+01
 Iteration Nr.  13
 **********************
 DD1Dir will call FoFMem   1 times, MxPair=       342
 NAB=   171 NAA=     0 NBB=     0.
 Norm of the A-vectors is  1.3994252D-05 conv= 1.00D-06.
 RLE energy=       -1.1694968561
 DE(Z)  -0.11694968D+01          E(Z)=    -0.32285222399D+03
 NORM(A)=   0.11703276D+01
 Iteration Nr.  14
 **********************
 DD1Dir will call FoFMem   1 times, MxPair=       342
 NAB=   171 NAA=     0 NBB=     0.
 Norm of the A-vectors is  7.7707647D-06 conv= 1.00D-06.
 RLE energy=       -1.1694968443
 DE(Z)  -0.11694968D+01          E(Z)=    -0.32285222401D+03
 NORM(A)=   0.11703276D+01
 Iteration Nr.  15
 **********************
 DD1Dir will call FoFMem   1 times, MxPair=       342
 NAB=   171 NAA=     0 NBB=     0.
 Norm of the A-vectors is  3.3874705D-06 conv= 1.00D-06.
 RLE energy=       -1.1694968464
 DE(Z)  -0.11694968D+01          E(Z)=    -0.32285222401D+03
 NORM(A)=   0.11703275D+01
 Iteration Nr.  16
 **********************
 DD1Dir will call FoFMem   1 times, MxPair=       342
 NAB=   171 NAA=     0 NBB=     0.
 Norm of the A-vectors is  2.1924011D-06 conv= 1.00D-06.
 RLE energy=       -1.1694968373
 DE(Z)  -0.11694968D+01          E(Z)=    -0.32285222401D+03
 NORM(A)=   0.11703275D+01
 Iteration Nr.  17
 **********************
 DD1Dir will call FoFMem   1 times, MxPair=       342
 NAB=   171 NAA=     0 NBB=     0.
 Norm of the A-vectors is  1.1210727D-06 conv= 1.00D-06.
 RLE energy=       -1.1694968433
 DE(Z)  -0.11694968D+01          E(Z)=    -0.32285222401D+03
 NORM(A)=   0.11703275D+01
 Iteration Nr.  18
 **********************
 DD1Dir will call FoFMem   1 times, MxPair=       342
 NAB=   171 NAA=     0 NBB=     0.
 Norm of the A-vectors is  9.0145888D-07 conv= 1.00D-06.
 RLE energy=       -1.1694968394
 DE(Z)  -0.11694968D+01          E(Z)=    -0.32285222401D+03
 NORM(A)=   0.11703275D+01
 CI/CC converged in   18 iterations to DelEn= 3.41D-09 Conv= 1.00D-08 ErrA1= 9.01D-07 Conv= 1.00D-06
 Discarding MO integrals.
 Leave Link  913 at Tue Sep  7 17:26:05 2021, MaxMem=  6710886400 cpu:     72966.5
 (Enter /gpfs/share/home/1801110325/software/g09e01/l1111.exe)
 Selected functions:
 Compute CCSD 2PDM.
 Form Post-SCF non-separable gradient here.
 IO1PDM=    0 IOW=    0 IO2PDM=    0.
 MDV=6710886400.
 Frozen-core window:  NFC=   7 NFV=   0.
