 Entering Gaussian System, Link 0=/home/tmcstu/local/programs/gaussian09/g09/g09
 Input=/home/tmcstu/shy/works/2PO_2HP/new_data_Gaussian09_20210826/XYG3/calc/4HY/.script427754/Job_4HY_XYG3_PC2.com
 Output=/home/tmcstu/shy/works/2PO_2HP/new_data_Gaussian09_20210826/XYG3/calc/4HY/.script427754/Job_4HY_XYG3_PC2.log
 AtFile(1): pc-2.gbs
            -H     0
            S    4   1.00
                  0.754230D+02           0.240650D-02
                  0.113500D+02           0.184870D-01
                  0.259930D+01           0.897420D-01
                  0.735130D+00           0.281110D+00
            S    1   1.00
                  0.231670D+00           0.100000D+01
            S    1   1.00
                  0.741470D-01           0.100000D+01
            P    1   1.00
                  0.160000D+01           0.100000D+01
            P    1   1.00
                  0.450000D+00           0.100000D+01
            D    1   1.00
                  0.125000D+01           0.100000D+01
            ****
            -C     0
            S    7   1.00
                  0.785710D+04           0.568250D-03
                  0.117870D+04           0.439150D-02
                  0.268320D+03           0.225040D-01
                  0.759480D+02           0.866530D-01
                  0.245590D+02           0.244050D+00
                  0.862120D+01           0.441480D+00
                  0.312780D+01           0.353320D+00
            S    7   1.00
                  0.117870D+04          -0.594920D-06
                  0.268320D+03          -0.627480D-04
                  0.759480D+02          -0.757730D-03
                  0.245590D+02          -0.733080D-02
                  0.862120D+01          -0.389320D-01
                  0.312780D+01          -0.889080D-01
                  0.822020D+00           0.216890D+00
            S    1   1.00
                  0.330170D+00           0.100000D+01
            S    1   1.00
                  0.114630D+00           0.100000D+01
            P    4   1.00
                  0.337750D+02           0.602940D-02
                  0.767660D+01           0.432280D-01
                  0.223570D+01           0.163010D+00
                  0.764470D+00           0.365040D+00
            P    1   1.00
                  0.262320D+00           0.100000D+01
            P    1   1.00
                  0.846380D-01           0.100000D+01
            D    1   1.00
                  0.140000D+01           0.100000D+01
            D    1   1.00
                  0.450000D+00           0.100000D+01
            F    1   1.00
                  0.950000D+00           0.100000D+01
            ****
            -N     0
            S    7   1.00
                  0.111010D+05           0.545700D-03
                  0.166530D+04           0.421810D-02
                  0.379080D+03           0.216450D-01
                  0.107300D+03           0.837760D-01
                  0.347470D+02           0.238810D+00
                  0.122490D+02           0.439940D+00
                  0.447430D+01           0.363640D+00
            S    7   1.00
                  0.166530D+04          -0.150060D-05
                  0.379080D+03          -0.587530D-04
                  0.107300D+03          -0.774530D-03
                  0.347470D+02          -0.721610D-02
                  0.122490D+02          -0.393380D-01
                  0.447430D+01          -0.906110D-01
                  0.124040D+01           0.198820D+00
            S    1   1.00
                  0.487430D+00           0.100000D+01
            S    1   1.00
                  0.164840D+00           0.100000D+01
            P    4   1.00
                  0.479340D+02           0.617060D-02
                  0.109990D+02           0.442600D-01
                  0.324720D+01           0.168250D+00
                  0.111140D+01           0.368480D+00
            P    1   1.00
                  0.379880D+00           0.100000D+01
            P    1   1.00
                  0.120680D+00           0.100000D+01
            D    1   1.00
                  0.180000D+01           0.100000D+01
            D    1   1.00
                  0.550000D+00           0.100000D+01
            F    1   1.00
                  0.102000D+01           0.100000D+01
            ****
            -O     0
            S    7   1.00
                  0.147820D+05           0.535190D-03
                  0.221730D+04           0.413750D-02
                  0.504740D+03           0.212450D-01
                  0.142870D+03           0.824530D-01
                  0.463000D+02           0.236710D+00
                  0.163370D+02           0.440390D+00
                  0.598280D+01           0.364650D+00
            S    7   1.00
                  0.221730D+04          -0.192750D-05
                  0.504740D+03          -0.579640D-04
                  0.142870D+03          -0.794940D-03
                  0.463000D+02          -0.731250D-02
                  0.163370D+02          -0.405740D-01
                  0.598280D+01          -0.915940D-01
                  0.167180D+01           0.209400D+00
            S    1   1.00
                  0.646620D+00           0.100000D+01
            S    1   1.00
                  0.216690D+00           0.100000D+01
            P    4   1.00
                  0.604240D+02           0.689490D-02
                  0.139350D+02           0.490050D-01
                  0.415310D+01           0.182550D+00
                  0.141580D+01           0.376330D+00
            P    1   1.00
                  0.475490D+00           0.100000D+01
            P    1   1.00
                  0.145290D+00           0.100000D+01
            D    1   1.00
                  0.220000D+01           0.100000D+01
            D    1   1.00
                  0.650000D+00           0.100000D+01
            F    1   1.00
                  0.110000D+01           0.100000D+01
            ****
 Initial command:
 /home/tmcstu/local/programs/gaussian09/g09/l1.exe "./tmp/Gau-427784.inp" -scrdir="./tmp/"
 Entering Link 1 = /home/tmcstu/local/programs/gaussian09/g09/l1.exe PID=    427785.
  
 Copyright (c) 1988,1990,1992,1993,1995,1998,2003,2009,2015,
            Gaussian, Inc.  All Rights Reserved.
  
 This is part of the Gaussian(R) 09 program.  It is based on
 the Gaussian(R) 03 system (copyright 2003, Gaussian, Inc.),
 the Gaussian(R) 98 system (copyright 1998, Gaussian, Inc.),
 the Gaussian(R) 94 system (copyright 1995, Gaussian, Inc.),
 the Gaussian 92(TM) system (copyright 1992, Gaussian, Inc.),
 the Gaussian 90(TM) system (copyright 1990, Gaussian, Inc.),
 the Gaussian 88(TM) system (copyright 1988, Gaussian, Inc.),
 the Gaussian 86(TM) system (copyright 1986, Carnegie Mellon
 University), and the Gaussian 82(TM) system (copyright 1983,
 Carnegie Mellon University). Gaussian is a federally registered
 trademark of Gaussian, Inc.
  
 This software contains proprietary and confidential information,
 including trade secrets, belonging to Gaussian, Inc.
  
 This software is provided under written license and may be
 used, copied, transmitted, or stored only in accord with that
 written license.
  
 The following legend is applicable only to US Government
 contracts under FAR:
  
                    RESTRICTED RIGHTS LEGEND
  
 Use, reproduction and disclosure by the US Government is
 subject to restrictions as set forth in subparagraphs (a)
 and (c) of the Commercial Computer Software - Restricted
 Rights clause in FAR 52.227-19.
  
 Gaussian, Inc.
 340 Quinnipiac St., Bldg. 40, Wallingford CT 06492
  
  
 ---------------------------------------------------------------
 Warning -- This program may not be used in any manner that
 competes with the business of Gaussian, Inc. or will provide
 assistance to any competitor of Gaussian, Inc.  The licensee
 of this program is prohibited from giving any competitor of
 Gaussian, Inc. access to this program.  By using this program,
 the user acknowledges that Gaussian, Inc. is engaged in the
 business of creating and licensing software in the field of
 computational chemistry and represents and warrants to the
 licensee that it is not a competitor of Gaussian, Inc. and that
 it will not use this program in any manner prohibited above.
 ---------------------------------------------------------------
  

 Cite this work as:
 Gaussian 09, Revision E.01,
 M. J. Frisch, G. W. Trucks, H. B. Schlegel, G. E. Scuseria, 
 M. A. Robb, J. R. Cheeseman, G. Scalmani, V. Barone, B. Mennucci, 
 G. A. Petersson, H. Nakatsuji, M. Caricato, X. Li, H. P. Hratchian, 
 A. F. Izmaylov, J. Bloino, G. Zheng, J. L. Sonnenberg, M. Hada, 
 M. Ehara, K. Toyota, R. Fukuda, J. Hasegawa, M. Ishida, T. Nakajima, 
 Y. Honda, O. Kitao, H. Nakai, T. Vreven, J. A. Montgomery, Jr., 
 J. E. Peralta, F. Ogliaro, M. Bearpark, J. J. Heyd, E. Brothers, 
 K. N. Kudin, V. N. Staroverov, T. Keith, R. Kobayashi, J. Normand, 
 K. Raghavachari, A. Rendell, J. C. Burant, S. S. Iyengar, J. Tomasi, 
 M. Cossi, N. Rega, J. M. Millam, M. Klene, J. E. Knox, J. B. Cross, 
 V. Bakken, C. Adamo, J. Jaramillo, R. Gomperts, R. E. Stratmann, 
 O. Yazyev, A. J. Austin, R. Cammi, C. Pomelli, J. W. Ochterski, 
 R. L. Martin, K. Morokuma, V. G. Zakrzewski, G. A. Voth, 
 P. Salvador, J. J. Dannenberg, S. Dapprich, A. D. Daniels, 
 O. Farkas, J. B. Foresman, J. V. Ortiz, J. Cioslowski, 
 and D. J. Fox, Gaussian, Inc., Wallingford CT, 2013.
 
 ******************************************
 Gaussian 09:  EM64L-G09RevE.01 30-Nov-2015
                29-Aug-2021 
 ******************************************
 %nprocshared=4
 Will use up to    4 processors via shared memory.
 %mem=4GB
 %oldchk=4HY_B3LYP_PC2_OPT_FREQ.chk
 %chk=./tmp/4HY_XYG3_PC2.chk
 Copying data from "4HY_B3LYP_PC2_OPT_FREQ.chk" to current chk file "./tmp/4HY_XYG3_PC2.chk".
 ------------------------------------------------------------
 #p gen geom=checkpoint b3lyp iop(5/33=1) nosymm extraoverlay
 ------------------------------------------------------------
 Additional overlay cards (at end):
 ------------------------------
 8/7=1,10=4/1; 9/16=-3/6; 6//8;
 ------------------------------
 1/29=2,38=1/1;
 2/12=2,15=1,40=1/2;
 3/5=7,11=2,14=-4,16=1,25=1,30=1,74=-5/1,2,3;
 4//1;
 5/5=2,33=1,38=5/2;
 6/7=2,8=2,9=2,10=2,28=1/1;
 8/7=1,10=4/1;
 9/16=-3/6;
 6//8;
 99/5=1,9=1/99;
 Leave Link    1 at Sun Aug 29 12:37:21 2021, MaxMem=   536870912 cpu:         0.1
 (Enter /home/tmcstu/local/programs/gaussian09/g09/l101.exe)
 ------------
 4HY_XYG3_PC2
 ------------
 Structure from the checkpoint file:  "./tmp/4HY_XYG3_PC2.chk"
 Charge =  0 Multiplicity = 1
 Redundant internal coordinates found in file.
 C,0,1.1491249349,1.1505605846,-0.00008087
 C,0,-0.2388341706,1.1845168759,0.0000279858
 C,0,-0.9280206229,-0.0244062566,-0.0000225451
 C,0,-0.1955617493,-1.207276029,-0.0000905418
 C,0,1.1871527728,-1.1197933428,-0.0000030884
 N,0,1.8682104053,0.029259951,-0.0000847615
 H,0,1.7075119814,2.0797927759,-0.0000033718
 H,0,-0.7654394519,2.1307904583,0.000094631
 H,0,-0.7017522898,-2.1615706886,-0.0001880629
 H,0,1.7811265567,-2.0264071963,-0.0002009321
 O,0,-2.2831154904,-0.1086089389,-0.0000131807
 H,0,-2.6687948763,0.7727208063,0.0001577376
 Recover connectivity data from disk.
 NAtoms=     12 NQM=       12 NQMF=       0 NMMI=      0 NMMIF=      0
                NMic=       0 NMicF=      0.
                    Isotopes and Nuclear Properties:
 (Nuclear quadrupole moments (NQMom) in fm**2, nuclear magnetic moments (NMagM)
  in nuclear magnetons)

  Atom         1           2           3           4           5           6           7           8           9          10
 IAtWgt=          12          12          12          12          12          14           1           1           1           1
 AtmWgt=  12.0000000  12.0000000  12.0000000  12.0000000  12.0000000  14.0030740   1.0078250   1.0078250   1.0078250   1.0078250
 NucSpn=           0           0           0           0           0           2           1           1           1           1
 AtZEff=  -3.6000000  -3.6000000  -3.6000000  -3.6000000  -3.6000000  -4.5500000  -1.0000000  -1.0000000  -1.0000000  -1.0000000
 NQMom=    0.0000000   0.0000000   0.0000000   0.0000000   0.0000000   2.0440000   0.0000000   0.0000000   0.0000000   0.0000000
 NMagM=    0.0000000   0.0000000   0.0000000   0.0000000   0.0000000   0.4037610   2.7928460   2.7928460   2.7928460   2.7928460
 AtZNuc=   6.0000000   6.0000000   6.0000000   6.0000000   6.0000000   7.0000000   1.0000000   1.0000000   1.0000000   1.0000000

  Atom        11          12
 IAtWgt=          16           1
 AtmWgt=  15.9949146   1.0078250
 NucSpn=           0           1
 AtZEff=  -5.6000000  -1.0000000
 NQMom=    0.0000000   0.0000000
 NMagM=    0.0000000   2.7928460
 AtZNuc=   8.0000000   1.0000000
 Leave Link  101 at Sun Aug 29 12:37:21 2021, MaxMem=   536870912 cpu:         0.4
 (Enter /home/tmcstu/local/programs/gaussian09/g09/l202.exe)
                          Input orientation:                          
 ---------------------------------------------------------------------
 Center     Atomic      Atomic             Coordinates (Angstroms)
 Number     Number       Type             X           Y           Z
 ---------------------------------------------------------------------
      1          6           0        1.149125    1.150561   -0.000081
      2          6           0       -0.238834    1.184517    0.000028
      3          6           0       -0.928021   -0.024406   -0.000023
      4          6           0       -0.195562   -1.207276   -0.000091
      5          6           0        1.187153   -1.119793   -0.000003
      6          7           0        1.868210    0.029260   -0.000085
      7          1           0        1.707512    2.079793   -0.000003
      8          1           0       -0.765439    2.130790    0.000095
      9          1           0       -0.701752   -2.161571   -0.000188
     10          1           0        1.781127   -2.026407   -0.000201
     11          8           0       -2.283115   -0.108609   -0.000013
     12          1           0       -2.668795    0.772721    0.000158
 ---------------------------------------------------------------------
                    Distance matrix (angstroms):
                    1          2          3          4          5
     1  C    0.000000
     2  C    1.388374   0.000000
     3  C    2.386437   1.391572   0.000000
     4  C    2.714328   2.392184   1.391286   0.000000
     5  C    2.270672   2.709850   2.381981   1.385479   0.000000
     6  N    1.332066   2.402968   2.796746   2.405863   1.335726
     7  H    1.084098   2.142378   3.372490   3.798225   3.241624
     8  H    2.150909   1.082934   2.161320   3.386362   3.791954
     9  H    3.794201   3.377957   2.149109   1.080235   2.157142
    10  H    3.239221   3.793452   3.368603   2.139690   1.083860
    11  O    3.655924   2.418938   1.357708   2.359015   3.614589
    12  H    3.836571   2.464606   1.914604   3.168165   4.295340
                    6          7          8          9         10
     6  N    0.000000
     7  H    2.056820   0.000000
     8  H    3.369353   2.473477   0.000000
     9  H    3.377047   4.877881   4.292834   0.000000
    10  H    2.057511   4.106860   4.875171   2.486555   0.000000
    11  O    4.153615   4.551287   2.705226   2.591401   4.493998
    12  H    4.597516   4.567330   2.338186   3.532609   5.257083
                   11         12
    11  O    0.000000
    12  H    0.962024   0.000000
 Symmetry turned off by external request.
 Stoichiometry    C5H5NO
 Framework group  C1[X(C5H5NO)]
 Deg. of freedom    30
 Full point group                 C1      NOp   1
 Rotational constants (GHZ):      6.0304138      2.6470402      1.8395658
 Leave Link  202 at Sun Aug 29 12:37:21 2021, MaxMem=   536870912 cpu:         0.0
 (Enter /home/tmcstu/local/programs/gaussian09/g09/l301.exe)
 General basis read from cards:  (5D, 7F)
 Centers:       7      8      9     10     12
 S 4 1.00
     Exponent=  7.5423000000D+01 Coefficients=  2.4065000000D-03
     Exponent=  1.1350000000D+01 Coefficients=  1.8487000000D-02
     Exponent=  2.5993000000D+00 Coefficients=  8.9742000000D-02
     Exponent=  7.3513000000D-01 Coefficients=  2.8111000000D-01
 S 1 1.00
     Exponent=  2.3167000000D-01 Coefficients=  1.0000000000D+00
 S 1 1.00
     Exponent=  7.4147000000D-02 Coefficients=  1.0000000000D+00
 P 1 1.00
     Exponent=  1.6000000000D+00 Coefficients=  1.0000000000D+00
 P 1 1.00
     Exponent=  4.5000000000D-01 Coefficients=  1.0000000000D+00
 D 1 1.00
     Exponent=  1.2500000000D+00 Coefficients=  1.0000000000D+00
 ****
 Centers:       1      2      3      4      5
 S 7 1.00
     Exponent=  7.8571000000D+03 Coefficients=  5.6825000000D-04
     Exponent=  1.1787000000D+03 Coefficients=  4.3915000000D-03
     Exponent=  2.6832000000D+02 Coefficients=  2.2504000000D-02
     Exponent=  7.5948000000D+01 Coefficients=  8.6653000000D-02
     Exponent=  2.4559000000D+01 Coefficients=  2.4405000000D-01
     Exponent=  8.6212000000D+00 Coefficients=  4.4148000000D-01
     Exponent=  3.1278000000D+00 Coefficients=  3.5332000000D-01
 S 7 1.00
     Exponent=  1.1787000000D+03 Coefficients= -5.9492000000D-07
     Exponent=  2.6832000000D+02 Coefficients= -6.2748000000D-05
     Exponent=  7.5948000000D+01 Coefficients= -7.5773000000D-04
     Exponent=  2.4559000000D+01 Coefficients= -7.3308000000D-03
     Exponent=  8.6212000000D+00 Coefficients= -3.8932000000D-02
     Exponent=  3.1278000000D+00 Coefficients= -8.8908000000D-02
     Exponent=  8.2202000000D-01 Coefficients=  2.1689000000D-01
 S 1 1.00
     Exponent=  3.3017000000D-01 Coefficients=  1.0000000000D+00
 S 1 1.00
     Exponent=  1.1463000000D-01 Coefficients=  1.0000000000D+00
 P 4 1.00
     Exponent=  3.3775000000D+01 Coefficients=  6.0294000000D-03
     Exponent=  7.6766000000D+00 Coefficients=  4.3228000000D-02
     Exponent=  2.2357000000D+00 Coefficients=  1.6301000000D-01
     Exponent=  7.6447000000D-01 Coefficients=  3.6504000000D-01
 P 1 1.00
     Exponent=  2.6232000000D-01 Coefficients=  1.0000000000D+00
 P 1 1.00
     Exponent=  8.4638000000D-02 Coefficients=  1.0000000000D+00
 D 1 1.00
     Exponent=  1.4000000000D+00 Coefficients=  1.0000000000D+00
 D 1 1.00
     Exponent=  4.5000000000D-01 Coefficients=  1.0000000000D+00
 F 1 1.00
     Exponent=  9.5000000000D-01 Coefficients=  1.0000000000D+00
 ****
 Centers:       6
 S 7 1.00
     Exponent=  1.1101000000D+04 Coefficients=  5.4570000000D-04
     Exponent=  1.6653000000D+03 Coefficients=  4.2181000000D-03
     Exponent=  3.7908000000D+02 Coefficients=  2.1645000000D-02
     Exponent=  1.0730000000D+02 Coefficients=  8.3776000000D-02
     Exponent=  3.4747000000D+01 Coefficients=  2.3881000000D-01
     Exponent=  1.2249000000D+01 Coefficients=  4.3994000000D-01
     Exponent=  4.4743000000D+00 Coefficients=  3.6364000000D-01
 S 7 1.00
     Exponent=  1.6653000000D+03 Coefficients= -1.5006000000D-06
     Exponent=  3.7908000000D+02 Coefficients= -5.8753000000D-05
     Exponent=  1.0730000000D+02 Coefficients= -7.7453000000D-04
     Exponent=  3.4747000000D+01 Coefficients= -7.2161000000D-03
     Exponent=  1.2249000000D+01 Coefficients= -3.9338000000D-02
     Exponent=  4.4743000000D+00 Coefficients= -9.0611000000D-02
     Exponent=  1.2404000000D+00 Coefficients=  1.9882000000D-01
 S 1 1.00
     Exponent=  4.8743000000D-01 Coefficients=  1.0000000000D+00
 S 1 1.00
     Exponent=  1.6484000000D-01 Coefficients=  1.0000000000D+00
 P 4 1.00
     Exponent=  4.7934000000D+01 Coefficients=  6.1706000000D-03
     Exponent=  1.0999000000D+01 Coefficients=  4.4260000000D-02
     Exponent=  3.2472000000D+00 Coefficients=  1.6825000000D-01
     Exponent=  1.1114000000D+00 Coefficients=  3.6848000000D-01
 P 1 1.00
     Exponent=  3.7988000000D-01 Coefficients=  1.0000000000D+00
 P 1 1.00
     Exponent=  1.2068000000D-01 Coefficients=  1.0000000000D+00
 D 1 1.00
     Exponent=  1.8000000000D+00 Coefficients=  1.0000000000D+00
 D 1 1.00
     Exponent=  5.5000000000D-01 Coefficients=  1.0000000000D+00
 F 1 1.00
     Exponent=  1.0200000000D+00 Coefficients=  1.0000000000D+00
 ****
 Centers:      11
 S 7 1.00
     Exponent=  1.4782000000D+04 Coefficients=  5.3519000000D-04
     Exponent=  2.2173000000D+03 Coefficients=  4.1375000000D-03
     Exponent=  5.0474000000D+02 Coefficients=  2.1245000000D-02
     Exponent=  1.4287000000D+02 Coefficients=  8.2453000000D-02
     Exponent=  4.6300000000D+01 Coefficients=  2.3671000000D-01
     Exponent=  1.6337000000D+01 Coefficients=  4.4039000000D-01
     Exponent=  5.9828000000D+00 Coefficients=  3.6465000000D-01
 S 7 1.00
     Exponent=  2.2173000000D+03 Coefficients= -1.9275000000D-06
     Exponent=  5.0474000000D+02 Coefficients= -5.7964000000D-05
     Exponent=  1.4287000000D+02 Coefficients= -7.9494000000D-04
     Exponent=  4.6300000000D+01 Coefficients= -7.3125000000D-03
     Exponent=  1.6337000000D+01 Coefficients= -4.0574000000D-02
     Exponent=  5.9828000000D+00 Coefficients= -9.1594000000D-02
     Exponent=  1.6718000000D+00 Coefficients=  2.0940000000D-01
 S 1 1.00
     Exponent=  6.4662000000D-01 Coefficients=  1.0000000000D+00
 S 1 1.00
     Exponent=  2.1669000000D-01 Coefficients=  1.0000000000D+00
 P 4 1.00
     Exponent=  6.0424000000D+01 Coefficients=  6.8949000000D-03
     Exponent=  1.3935000000D+01 Coefficients=  4.9005000000D-02
     Exponent=  4.1531000000D+00 Coefficients=  1.8255000000D-01
     Exponent=  1.4158000000D+00 Coefficients=  3.7633000000D-01
 P 1 1.00
     Exponent=  4.7549000000D-01 Coefficients=  1.0000000000D+00
 P 1 1.00
     Exponent=  1.4529000000D-01 Coefficients=  1.0000000000D+00
 D 1 1.00
     Exponent=  2.2000000000D+00 Coefficients=  1.0000000000D+00
 D 1 1.00
     Exponent=  6.5000000000D-01 Coefficients=  1.0000000000D+00
 F 1 1.00
     Exponent=  1.1000000000D+00 Coefficients=  1.0000000000D+00
 ****
 Ernie: Thresh=  0.10000D-02 Tol=  0.10000D-05 Strict=F.
 Ernie:  7 primitive shells out of 220 were deleted.
   280 basis functions,   475 primitive gaussians,   320 cartesian basis functions
    25 alpha electrons       25 beta electrons
       nuclear repulsion energy       274.8169568516 Hartrees.
 IExCor=  402 DFT=T Ex+Corr=B3LYP ExCW=0 ScaHFX=  0.200000
 ScaDFX=  0.800000  0.720000  1.000000  0.810000 ScalE2=  1.000000  1.000000
 IRadAn=      0 IRanWt=     -1 IRanGd=            0 ICorTp=0 IEmpDi=  4
 NAtoms=   12 NActive=   12 NUniq=   12 SFac= 1.00D+00 NAtFMM=   60 NAOKFM=F Big=F
 Integral buffers will be    131072 words long.
 Raffenetti 2 integral format.
 Two-electron integral symmetry is turned off.
 Leave Link  301 at Sun Aug 29 12:37:21 2021, MaxMem=   536870912 cpu:         0.1
 (Enter /home/tmcstu/local/programs/gaussian09/g09/l302.exe)
 NPDir=0 NMtPBC=     1 NCelOv=     1 NCel=       1 NClECP=     1 NCelD=      1
         NCelK=      1 NCelE2=     1 NClLst=     1 CellRange=     0.0.
 One-electron integrals computed using PRISM.
 NBasis=   280 RedAO= T EigKep=  1.94D-04  NBF=   280
 NBsUse=   280 1.00D-06 EigRej= -1.00D+00 NBFU=   280
 Precomputing XC quadrature grid using
 IXCGrd= 4 IRadAn=           0 IRanWt=          -1 IRanGd=           0 AccXCQ= 0.00D+00.
 Generated NRdTot=       0 NPtTot=           0 NUsed=           0 NTot=          32
 NSgBfM=   320   320   320   320   320 MxSgAt=    12 MxSgA2=    12.
 Leave Link  302 at Sun Aug 29 12:37:22 2021, MaxMem=   536870912 cpu:         0.5
 (Enter /home/tmcstu/local/programs/gaussian09/g09/l303.exe)
 DipDrv:  MaxL=1.
 Leave Link  303 at Sun Aug 29 12:37:22 2021, MaxMem=   536870912 cpu:         0.1
 (Enter /home/tmcstu/local/programs/gaussian09/g09/l401.exe)
 ExpMin= 7.41D-02 ExpMax= 1.48D+04 ExpMxC= 5.05D+02 IAcc=2 IRadAn=         4 AccDes= 0.00D+00
 Harris functional with IExCor=  402 and IRadAn=       4 diagonalized for initial guess.
 HarFok:  IExCor=  402 AccDes= 0.00D+00 IRadAn=         4 IDoV= 1 UseB2=F ITyADJ=14
 ICtDFT=  3500011 ScaDFX=  1.000000  1.000000  1.000000  1.000000
 FoFCou: FMM=F IPFlag=           0 FMFlag=      100000 FMFlg1=           0
         NFxFlg=           0 DoJE=T BraDBF=F KetDBF=T FulRan=T
         wScrn=  0.000000 ICntrl=     500 IOpCl=  0 I1Cent=   200000004 NGrid=           0
         NMat0=    1 NMatS0=      1 NMatT0=    0 NMatD0=    1 NMtDS0=    0 NMtDT0=    0
 Symmetry not used in FoFCou.
 Harris En= -323.668610408872    
 JPrj=0 DoOrth=F DoCkMO=F.
 Leave Link  401 at Sun Aug 29 12:37:22 2021, MaxMem=   536870912 cpu:         2.4
 (Enter /home/tmcstu/local/programs/gaussian09/g09/l502.exe)
 A Direct SCF calculation will be performed.
 Closed shell SCF:
 Using DIIS extrapolation, IDIIS=  1040.
 Two-electron integral symmetry not used.
 ReadGW:  IGet=1 IStart=      210254 Next=      210254 LGW=           0.
 NBasis=      280 NAllTT=    51360 NAllSq=   102400 NWIIB=         0
 INEq=        438 LenNEq=        0 IIJ=         825 ID=         1209
 IDD=      103609 IDA=        1209 IDB=       52569 IF=       104448
 IFF=      206848 IFA=      104448 IFB=      155808 IScr2=    207687
 IV=       210254 IBuf2E=   210254 IMin1=    329614 IMin=     329614
 IV=       329614 IOpCl=         0
 IVT=      329614 IEndB=      329614 NGot=   536870912 MDV=   536660659
 LenX=   536660659 LenY=   536557818
 Requested convergence on RMS density matrix=1.00D-08 within 128 cycles.
 Requested convergence on MAX density matrix=1.00D-06.
 Requested convergence on             energy=1.00D-06.
 No special actions if energy rises.
 Fock matrices will be formed incrementally for  20 cycles.
 Selected VarAcc= 4.
 Integral accuracy reduced to 1.0D-05 until final iterations.

 Cycle   1  Pass 0  IDiag  1:
 One-electron energy=-0.988533948885D+03
 FoFJK:  IHMeth= 1 ICntrl=       0 DoSepK=F KAlg= 0 I1Cent=   0 FoldK=F
 IRaf= 970000000 NMat=   1 IRICut=       1 DoRegI=T DoRafI=F ISym2E= 0.
 FoFCou: FMM=F IPFlag=           0 FMFlag=      100000 FMFlg1=           0
         NFxFlg=           0 DoJE=F BraDBF=F KetDBF=F FulRan=T
         wScrn=  0.000000 ICntrl=       0 IOpCl=  0 I1Cent=           0 NGrid=           0
         NMat0=    1 NMatS0=      1 NMatT0=    0 NMatD0=    1 NMtDS0=    0 NMtDT0=    0
 Symmetry not used in FoFCou.
 Calling FoFDFT with Acc= 0.00D+00 ICntrl=  400011 IRadAn=       1.
 IMat=  1 1/2 <PG(P)>=         426.809774610029
 Remaining memory in FofDFT      511.74 Mw
 CkSvGd:  ISavGI=        -1 IRadAn=       1 IRASav=       0 ISavGd=        -1.
 CalDSu:  NPrtUS=   4 ThrOK=T IAlg=1 NPAlg=2 DoDPD=T LenP=       51360 LenD1P=             0.
 IPart=  0 IRanGd=          0 ScrnBf=T ScrnGd=T RCrit=4.00D+00 DoMicB=T.
 IPart=  1         8304 of         9464 points in      39 batches and       85 microbatches, Max-NSigAt=      12 Max-NSgAt2=      12
 IPart=  3         8630 of         9610 points in      39 batches and       70 microbatches, Max-NSigAt=      12 Max-NSgAt2=      12
 IPart=  0         8241 of         9424 points in      40 batches and       86 microbatches, Max-NSigAt=      12 Max-NSgAt2=      12
 IPart=  2         8313 of         9234 points in      37 batches and       67 microbatches, Max-NSigAt=      12 Max-NSgAt2=      12
 IMat=  1 Ex=         -34.357797152812 Ec=          -2.220048046021
 1/2 <PJ(P)> + E(ex) + E(corr)=         390.231929411196
 IMat=  1 EOne=-0.988533948885D+03 ETwo= 0.390231929411D+03 Energy=-0.598302019474D+03
 1/2 <PG(P)>=         426.809774610029
 Ex=         -34.357797152812 Ec=          -2.220048046021
 1/2 <PG(P)> + E(ex) + E(corr)=         390.231929411196
 E= -323.485062622558    
 DIIS: error= 3.48D-02 at cycle   1 NSaved=   1.
 NSaved= 1 IEnMin= 1 EnMin= -323.485062622558     IErMin= 1 ErrMin= 3.48D-02
 ErrMax= 3.48D-02  0.00D+00 EMaxC= 1.00D-01 BMatC= 1.81D-01 BMatP= 1.81D-01
 IDIUse=3 WtCom= 6.52D-01 WtEn= 3.48D-01
 Coeff-Com:  0.100D+01
 Coeff-En:   0.100D+01
 Coeff:      0.100D+01
 Gap=     0.236 Goal=   None    Shift=    0.000
 GapD=    0.236 DampG=1.000 DampE=0.500 DampFc=0.5000 IDamp=-1.
 Damping current iteration by 5.00D-01
 RMSDP=3.01D-03 MaxDP=1.30D-01              OVMax= 1.79D-01

 Cycle   2  Pass 0  IDiag  1:
 One-electron energy=-0.981712747457D+03
 RMSU=  1.48D-03    CP:  9.80D-01
 Calling FoFDFT with Acc= 0.00D+00 ICntrl=  100011 IRadAn=       1.
 IMat=  1 1/2 <PG(P)>=         419.371017208858
 Remaining memory in FofDFT      511.75 Mw
 CkSvGd:  ISavGI=        -1 IRadAn=       1 IRASav=       0 ISavGd=        -1.
 CalDSu:  NPrtUS=   4 ThrOK=T IAlg=1 NPAlg=2 DoDPD=T LenP=       51360 LenD1P=             0.
 IPart=  0 IRanGd=          0 ScrnBf=T ScrnGd=T RCrit=4.00D+00 DoMicB=T.
 IPart=  0         8099 of         8922 points in      33 batches and       73 microbatches, Max-NSigAt=      12 Max-NSgAt2=      12
 IPart=  1         8588 of         9714 points in      42 batches and       82 microbatches, Max-NSigAt=      12 Max-NSgAt2=      12
 IPart=  3         8170 of         9104 points in      36 batches and       72 microbatches, Max-NSigAt=      12 Max-NSgAt2=      12
 IPart=  2         8631 of         9992 points in      44 batches and       81 microbatches, Max-NSigAt=      12 Max-NSgAt2=      12
 IMat=  1 Ex=         -33.833303104886 Ec=          -2.197855444147
 1/2 <PJ(P)> + E(ex) + E(corr)=         383.339858659825
 IMat=  1 EOne=-0.981712747457D+03 ETwo= 0.383339858660D+03 Energy=-0.598372888797D+03
 1/2 <PG(P)>=         419.371017208858
 Ex=         -33.833303104886 Ec=          -2.197855444147
 1/2 <PG(P)> + E(ex) + E(corr)=         383.339858659825
 E= -323.555931945171     Delta-E=       -0.070869322613 Rises=F Damp=T
 DIIS: error= 5.06D-03 at cycle   2 NSaved=   2.
 NSaved= 2 IEnMin= 2 EnMin= -323.555931945171     IErMin= 2 ErrMin= 5.06D-03
 ErrMax= 5.06D-03  0.00D+00 EMaxC= 1.00D-01 BMatC= 1.00D-02 BMatP= 1.81D-01
 IDIUse=3 WtCom= 9.49D-01 WtEn= 5.06D-02
 Coeff-Com:  0.547D-01 0.945D+00
 Coeff-En:   0.115D+00 0.885D+00
 Coeff:      0.578D-01 0.942D+00
 Gap=     0.271 Goal=   None    Shift=    0.000
 RMSDP=6.50D-04 MaxDP=2.98D-02 DE=-7.09D-02 OVMax= 1.18D-01

 Cycle   3  Pass 0  IDiag  1:
 One-electron energy=-0.982541662914D+03
 RMSU=  5.97D-04    CP:  9.77D-01  8.29D-01
 Calling FoFDFT with Acc= 0.00D+00 ICntrl=  400011 IRadAn=       1.
 IMat=  1 1/2 <PG(P)>=         420.156435357634
 Remaining memory in FofDFT      511.74 Mw
 CkSvGd:  ISavGI=        -1 IRadAn=       1 IRASav=       0 ISavGd=        -1.
 CalDSu:  NPrtUS=   4 ThrOK=T IAlg=1 NPAlg=2 DoDPD=T LenP=       51360 LenD1P=             0.
 IPart=  0 IRanGd=          0 ScrnBf=T ScrnGd=T RCrit=4.00D+00 DoMicB=T.
 IPart=  3         8435 of         9428 points in      37 batches and       67 microbatches, Max-NSigAt=      12 Max-NSgAt2=      12
 IPart=  2         8076 of         8824 points in      33 batches and       72 microbatches, Max-NSigAt=      12 Max-NSgAt2=      12
 IPart=  0         8471 of         9704 points in      42 batches and       80 microbatches, Max-NSigAt=      12 Max-NSgAt2=      12
 IPart=  1         8506 of         9776 points in      43 batches and       89 microbatches, Max-NSigAt=      12 Max-NSgAt2=      12
 IMat=  1 Ex=         -33.873379318843 Ec=          -2.199494655942
 1/2 <PJ(P)> + E(ex) + E(corr)=         384.083561382849
 IMat=  1 EOne=-0.982541662914D+03 ETwo= 0.384083561383D+03 Energy=-0.598458101531D+03
 1/2 <PG(P)>=         420.156435357634
 Ex=         -33.873379318843 Ec=          -2.199494655942
 1/2 <PG(P)> + E(ex) + E(corr)=         384.083561382849
 E= -323.641144679496     Delta-E=       -0.085212734325 Rises=F Damp=F
 DIIS: error= 6.08D-03 at cycle   3 NSaved=   3.
 NSaved= 3 IEnMin= 3 EnMin= -323.641144679496     IErMin= 2 ErrMin= 5.06D-03
 ErrMax= 6.08D-03  0.00D+00 EMaxC= 1.00D-01 BMatC= 7.33D-03 BMatP= 1.00D-02
 IDIUse=3 WtCom= 9.39D-01 WtEn= 6.08D-02
 Coeff-Com: -0.280D-01 0.453D+00 0.575D+00
 Coeff-En:   0.000D+00 0.000D+00 0.100D+01
 Coeff:     -0.263D-01 0.425D+00 0.601D+00
 Gap=     0.238 Goal=   None    Shift=    0.000
 RMSDP=3.29D-04 MaxDP=1.56D-02 DE=-8.52D-02 OVMax= 4.75D-02

 Cycle   4  Pass 0  IDiag  1:
 One-electron energy=-0.982485852230D+03
 RMSU=  2.50D-04    CP:  9.79D-01  8.97D-01  6.88D-01
 Calling FoFDFT with Acc= 0.00D+00 ICntrl=  400011 IRadAn=       1.
 IMat=  1 1/2 <PG(P)>=         420.075197854562
 Remaining memory in FofDFT      511.74 Mw
 CkSvGd:  ISavGI=        -1 IRadAn=       1 IRASav=       0 ISavGd=        -1.
 CalDSu:  NPrtUS=   4 ThrOK=T IAlg=1 NPAlg=2 DoDPD=T LenP=       51360 LenD1P=             0.
 IPart=  0 IRanGd=          0 ScrnBf=T ScrnGd=T RCrit=4.00D+00 DoMicB=T.
 IPart=  0         8442 of         9866 points in      44 batches and       88 microbatches, Max-NSigAt=      12 Max-NSgAt2=      12
 IPart=  3         8121 of         8902 points in      33 batches and       70 microbatches, Max-NSigAt=      12 Max-NSgAt2=      12
 IPart=  2         8551 of         9708 points in      41 batches and       80 microbatches, Max-NSigAt=      12 Max-NSgAt2=      12
 IPart=  1         8374 of         9256 points in      37 batches and       70 microbatches, Max-NSigAt=      12 Max-NSgAt2=      12
 IMat=  1 Ex=         -33.851826794923 Ec=          -2.199112301682
 1/2 <PJ(P)> + E(ex) + E(corr)=         384.024258757956
 IMat=  1 EOne=-0.982485852230D+03 ETwo= 0.384024258758D+03 Energy=-0.598461593472D+03
 1/2 <PG(P)>=         420.075197854562
 Ex=         -33.851826794923 Ec=          -2.199112301682
 1/2 <PG(P)> + E(ex) + E(corr)=         384.024258757956
 E= -323.644636620682     Delta-E=       -0.003491941186 Rises=F Damp=F
 DIIS: error= 4.47D-03 at cycle   4 NSaved=   4.
 NSaved= 4 IEnMin= 4 EnMin= -323.644636620682     IErMin= 4 ErrMin= 4.47D-03
 ErrMax= 4.47D-03  0.00D+00 EMaxC= 1.00D-01 BMatC= 3.00D-03 BMatP= 7.33D-03
 IDIUse=3 WtCom= 9.55D-01 WtEn= 4.47D-02
 Coeff-Com: -0.267D-01 0.155D+00 0.408D+00 0.464D+00
 Coeff-En:   0.000D+00 0.000D+00 0.338D+00 0.662D+00
 Coeff:     -0.255D-01 0.148D+00 0.405D+00 0.473D+00
 Gap=     0.238 Goal=   None    Shift=    0.000
 RMSDP=1.75D-04 MaxDP=6.76D-03 DE=-3.49D-03 OVMax= 2.13D-02

 Cycle   5  Pass 0  IDiag  1:
 One-electron energy=-0.982284142397D+03
 RMSU=  7.36D-05    CP:  9.78D-01  8.71D-01  7.98D-01  4.48D-01
 Calling FoFDFT with Acc= 0.00D+00 ICntrl=  400011 IRadAn=       1.
 IMat=  1 1/2 <PG(P)>=         419.869958444924
 Remaining memory in FofDFT      511.74 Mw
 CkSvGd:  ISavGI=        -1 IRadAn=       1 IRASav=       0 ISavGd=        -1.
 CalDSu:  NPrtUS=   4 ThrOK=T IAlg=1 NPAlg=2 DoDPD=T LenP=       51360 LenD1P=             0.
 IPart=  0 IRanGd=          0 ScrnBf=T ScrnGd=T RCrit=4.00D+00 DoMicB=T.
 IPart=  0         8451 of         9794 points in      44 batches and       80 microbatches, Max-NSigAt=      12 Max-NSgAt2=      12
 IPart=  3         8160 of         9096 points in      35 batches and       73 microbatches, Max-NSigAt=      12 Max-NSgAt2=      12
 IPart=  1         8598 of         9624 points in      39 batches and       72 microbatches, Max-NSigAt=      12 Max-NSgAt2=      12
 IPart=  2         8279 of         9218 points in      37 batches and       83 microbatches, Max-NSigAt=      12 Max-NSgAt2=      12
 IMat=  1 Ex=         -33.851472398395 Ec=          -2.198753267888
 1/2 <PJ(P)> + E(ex) + E(corr)=         383.819732778641
 IMat=  1 EOne=-0.982284142397D+03 ETwo= 0.383819732779D+03 Energy=-0.598464409618D+03
 1/2 <PG(P)>=         419.869958444924
 Ex=         -33.851472398395 Ec=          -2.198753267888
 1/2 <PG(P)> + E(ex) + E(corr)=         383.819732778641
 E= -323.647452766425     Delta-E=       -0.002816145743 Rises=F Damp=F
 DIIS: error= 1.02D-03 at cycle   5 NSaved=   5.
 NSaved= 5 IEnMin= 5 EnMin= -323.647452766425     IErMin= 5 ErrMin= 1.02D-03
 ErrMax= 1.02D-03  0.00D+00 EMaxC= 1.00D-01 BMatC= 1.01D-04 BMatP= 3.00D-03
 IDIUse=3 WtCom= 9.90D-01 WtEn= 1.02D-02
 Coeff-Com: -0.877D-02 0.264D-01 0.129D+00 0.226D+00 0.628D+00
 Coeff-En:   0.000D+00 0.000D+00 0.000D+00 0.000D+00 0.100D+01
 Coeff:     -0.868D-02 0.261D-01 0.127D+00 0.224D+00 0.632D+00
 Gap=     0.238 Goal=   None    Shift=    0.000
 RMSDP=4.06D-05 MaxDP=1.44D-03 DE=-2.82D-03 OVMax= 5.37D-03

 Cycle   6  Pass 0  IDiag  1:
 One-electron energy=-0.982269520337D+03
 RMSU=  2.41D-05    CP:  9.78D-01  8.80D-01  7.93D-01  5.29D-01  7.06D-01
 Calling FoFDFT with Acc= 0.00D+00 ICntrl=  400011 IRadAn=       1.
 IMat=  1 1/2 <PG(P)>=         419.854430939232
 Remaining memory in FofDFT      511.74 Mw
 CkSvGd:  ISavGI=        -1 IRadAn=       1 IRASav=       0 ISavGd=        -1.
 CalDSu:  NPrtUS=   4 ThrOK=T IAlg=1 NPAlg=2 DoDPD=T LenP=       51360 LenD1P=             0.
 IPart=  0 IRanGd=          0 ScrnBf=T ScrnGd=T RCrit=4.00D+00 DoMicB=T.
 IPart=  0         8855 of        10506 points in      49 batches and       87 microbatches, Max-NSigAt=      12 Max-NSgAt2=      12
 IPart=  1         8039 of         8754 points in      31 batches and       70 microbatches, Max-NSigAt=      12 Max-NSgAt2=      12
 IPart=  2         8139 of         8954 points in      35 batches and       70 microbatches, Max-NSigAt=      12 Max-NSgAt2=      12
 IPart=  3         8455 of         9518 points in      40 batches and       81 microbatches, Max-NSigAt=      12 Max-NSgAt2=      12
 IMat=  1 Ex=         -33.850729455571 Ec=          -2.198668851165
 1/2 <PJ(P)> + E(ex) + E(corr)=         383.805032632496
 IMat=  1 EOne=-0.982269520337D+03 ETwo= 0.383805032632D+03 Energy=-0.598464487704D+03
 1/2 <PG(P)>=         419.854430939232
 Ex=         -33.850729455571 Ec=          -2.198668851165
 1/2 <PG(P)> + E(ex) + E(corr)=         383.805032632496
 E= -323.647530852497     Delta-E=       -0.000078086072 Rises=F Damp=F
 DIIS: error= 3.08D-04 at cycle   6 NSaved=   6.
 NSaved= 6 IEnMin= 6 EnMin= -323.647530852497     IErMin= 6 ErrMin= 3.08D-04
 ErrMax= 3.08D-04  0.00D+00 EMaxC= 1.00D-01 BMatC= 2.58D-05 BMatP= 1.01D-04
 IDIUse=3 WtCom= 9.97D-01 WtEn= 3.08D-03
 Coeff-Com: -0.361D-02 0.446D-02 0.488D-01 0.105D+00 0.409D+00 0.436D+00
 Coeff-En:   0.000D+00 0.000D+00 0.000D+00 0.000D+00 0.184D+00 0.816D+00
 Coeff:     -0.360D-02 0.444D-02 0.487D-01 0.105D+00 0.409D+00 0.437D+00
 Gap=     0.237 Goal=   None    Shift=    0.000
 RMSDP=1.37D-05 MaxDP=5.34D-04 DE=-7.81D-05 OVMax= 1.81D-03

 Cycle   7  Pass 0  IDiag  1:
 One-electron energy=-0.982278043022D+03
 RMSU=  5.31D-06    CP:  9.78D-01  8.78D-01  7.96D-01  5.21D-01  7.60D-01
                    CP:  5.32D-01
 Calling FoFDFT with Acc= 0.00D+00 ICntrl=  400011 IRadAn=       1.
 IMat=  1 1/2 <PG(P)>=         419.862308311328
 Remaining memory in FofDFT      511.74 Mw
 CkSvGd:  ISavGI=        -1 IRadAn=       1 IRASav=       0 ISavGd=        -1.
 CalDSu:  NPrtUS=   4 ThrOK=T IAlg=1 NPAlg=2 DoDPD=T LenP=       51360 LenD1P=             0.
 IPart=  0 IRanGd=          0 ScrnBf=T ScrnGd=T RCrit=4.00D+00 DoMicB=T.
 IPart=  2         8143 of         9192 points in      37 batches and       81 microbatches, Max-NSigAt=      12 Max-NSgAt2=      12
 IPart=  3         8743 of         9944 points in      43 batches and       75 microbatches, Max-NSigAt=      12 Max-NSgAt2=      12
 IPart=  0         8111 of         9076 points in      36 batches and       71 microbatches, Max-NSigAt=      12 Max-NSgAt2=      12
 IPart=  1         8491 of         9520 points in      39 batches and       81 microbatches, Max-NSigAt=      12 Max-NSgAt2=      12
 IMat=  1 Ex=         -33.850092739838 Ec=          -2.198683788370
 1/2 <PJ(P)> + E(ex) + E(corr)=         383.813531783121
 IMat=  1 EOne=-0.982278043022D+03 ETwo= 0.383813531783D+03 Energy=-0.598464511239D+03
 1/2 <PG(P)>=         419.862308311328
 Ex=         -33.850092739838 Ec=          -2.198683788370
 1/2 <PG(P)> + E(ex) + E(corr)=         383.813531783121
 E= -323.647554386939     Delta-E=       -0.000023534443 Rises=F Damp=F
 DIIS: error= 3.02D-05 at cycle   7 NSaved=   7.
 NSaved= 7 IEnMin= 7 EnMin= -323.647554386939     IErMin= 7 ErrMin= 3.02D-05
 ErrMax= 3.02D-05  0.00D+00 EMaxC= 1.00D-01 BMatC= 3.41D-07 BMatP= 2.58D-05
 IDIUse=1 WtCom= 1.00D+00 WtEn= 0.00D+00
 Coeff-Com: -0.875D-03 0.226D-03 0.137D-01 0.319D-01 0.134D+00 0.169D+00
 Coeff-Com:  0.653D+00
 Coeff:     -0.875D-03 0.226D-03 0.137D-01 0.319D-01 0.134D+00 0.169D+00
 Coeff:      0.653D+00
 Gap=     0.237 Goal=   None    Shift=    0.000
 RMSDP=2.37D-06 MaxDP=1.11D-04 DE=-2.35D-05 OVMax= 3.07D-04

 Initial convergence to 1.0D-05 achieved.  Increase integral accuracy.
 Cycle   8  Pass 1  IDiag  1:
 One-electron energy=-0.982283573881D+03
 Calling FoFDFT with Acc= 0.00D+00 ICntrl=  400011 IRadAn=       0.
 IMat=  1 1/2 <PG(P)>=         419.868167588941
 Remaining memory in FofDFT      511.74 Mw
 CkSvGd:  ISavGI=        -1 IRadAn=       4 IRASav=       0 ISavGd=        -1.
 CalDSu:  NPrtUS=   4 ThrOK=T IAlg=1 NPAlg=2 DoDPD=T LenP=       51360 LenD1P=             0.
 IPart=  0 IRanGd=          0 ScrnBf=T ScrnGd=T RCrit=4.00D+00 DoMicB=T.
 IPart=  0        22492 of        25346 points in      54 batches and      152 microbatches, Max-NSigAt=      12 Max-NSgAt2=      12
 IPart=  1        21553 of        24134 points in      52 batches and      159 microbatches, Max-NSigAt=      12 Max-NSgAt2=      12
 IPart=  3        21000 of        23440 points in      50 batches and      163 microbatches, Max-NSigAt=      12 Max-NSgAt2=      12
 IPart=  2        21662 of        23950 points in      49 batches and      166 microbatches, Max-NSigAt=      12 Max-NSgAt2=      12
 IMat=  1 Ex=         -33.850415986167 Ec=          -2.198686412049
 1/2 <PJ(P)> + E(ex) + E(corr)=         383.819065190726
 IMat=  1 EOne=-0.982283573881D+03 ETwo= 0.383819065191D+03 Energy=-0.598464508691D+03
 1/2 <PG(P)>=         419.868167588941
 Ex=         -33.850415986167 Ec=          -2.198686412049
 1/2 <PG(P)> + E(ex) + E(corr)=         383.819065190726
 E= -323.647551838933     Delta-E=        0.000002548007 Rises=F Damp=F
 DIIS: error= 4.18D-05 at cycle   1 NSaved=   1.
 NSaved= 1 IEnMin= 1 EnMin= -323.647551838933     IErMin= 1 ErrMin= 4.18D-05
 ErrMax= 4.18D-05  0.00D+00 EMaxC= 1.00D-01 BMatC= 3.66D-07 BMatP= 3.66D-07
 IDIUse=1 WtCom= 1.00D+00 WtEn= 0.00D+00
 Coeff-Com:  0.100D+01
 Coeff:      0.100D+01
 Gap=     0.237 Goal=   None    Shift=    0.000
 RMSDP=2.37D-06 MaxDP=1.11D-04 DE= 2.55D-06 OVMax= 3.94D-04

 Cycle   9  Pass 1  IDiag  1:
 One-electron energy=-0.982280261965D+03
 RMSU=  9.83D-06    CP:  1.00D+00
 Calling FoFDFT with Acc= 0.00D+00 ICntrl=  400011 IRadAn=       0.
 IMat=  1 1/2 <PG(P)>=         419.864732276539
 Remaining memory in FofDFT      511.74 Mw
 CkSvGd:  ISavGI=        -1 IRadAn=       4 IRASav=       0 ISavGd=        -1.
 CalDSu:  NPrtUS=   4 ThrOK=T IAlg=1 NPAlg=2 DoDPD=T LenP=       51360 LenD1P=             0.
 IPart=  0 IRanGd=          0 ScrnBf=T ScrnGd=T RCrit=4.00D+00 DoMicB=T.
 IPart=  2        21476 of        24052 points in      51 batches and      163 microbatches, Max-NSigAt=      12 Max-NSgAt2=      12
 IPart=  3        22050 of        24676 points in      52 batches and      137 microbatches, Max-NSigAt=      12 Max-NSgAt2=      12
 IPart=  0        21944 of        24476 points in      52 batches and      156 microbatches, Max-NSigAt=      12 Max-NSgAt2=      12
 IPart=  1        21237 of        23666 points in      50 batches and      184 microbatches, Max-NSigAt=      12 Max-NSgAt2=      12
 IMat=  1 Ex=         -33.850300820185 Ec=          -2.198678227109
 1/2 <PJ(P)> + E(ex) + E(corr)=         383.815753229244
 IMat=  1 EOne=-0.982280261965D+03 ETwo= 0.383815753229D+03 Energy=-0.598464508736D+03
 1/2 <PG(P)>=         419.864732276539
 Ex=         -33.850300820185 Ec=          -2.198678227109
 1/2 <PG(P)> + E(ex) + E(corr)=         383.815753229244
 E= -323.647551884618     Delta-E=       -0.000000045685 Rises=F Damp=F
 DIIS: error= 3.65D-05 at cycle   2 NSaved=   2.
 NSaved= 2 IEnMin= 2 EnMin= -323.647551884618     IErMin= 2 ErrMin= 3.65D-05
 ErrMax= 3.65D-05  0.00D+00 EMaxC= 1.00D-01 BMatC= 3.15D-07 BMatP= 3.66D-07
 IDIUse=1 WtCom= 1.00D+00 WtEn= 0.00D+00
 Coeff-Com:  0.475D+00 0.525D+00
 Coeff:      0.475D+00 0.525D+00
 Gap=     0.237 Goal=   None    Shift=    0.000
 RMSDP=2.14D-06 MaxDP=1.10D-04 DE=-4.57D-08 OVMax= 3.16D-04

 Cycle  10  Pass 1  IDiag  1:
 One-electron energy=-0.982282424638D+03
 RMSU=  2.12D-06    CP:  1.00D+00  9.70D-01
 Calling FoFDFT with Acc= 0.00D+00 ICntrl=  400011 IRadAn=       0.
 IMat=  1 1/2 <PG(P)>=         419.866987752158
 Remaining memory in FofDFT      511.74 Mw
 CkSvGd:  ISavGI=        -1 IRadAn=       4 IRASav=       0 ISavGd=        -1.
 CalDSu:  NPrtUS=   4 ThrOK=T IAlg=1 NPAlg=2 DoDPD=T LenP=       51360 LenD1P=             0.
 IPart=  0 IRanGd=          0 ScrnBf=T ScrnGd=T RCrit=4.00D+00 DoMicB=T.
 IPart=  3        21230 of        23742 points in      52 batches and      156 microbatches, Max-NSigAt=      12 Max-NSgAt2=      12
 IPart=  2        22581 of        25766 points in      54 batches and      139 microbatches, Max-NSigAt=      12 Max-NSgAt2=      12
 IPart=  1        21459 of        23630 points in      49 batches and      165 microbatches, Max-NSigAt=      12 Max-NSgAt2=      12
 IPart=  0        21437 of        23732 points in      50 batches and      180 microbatches, Max-NSigAt=      12 Max-NSgAt2=      12
 IMat=  1 Ex=         -33.850388969635 Ec=          -2.198683122180
 1/2 <PJ(P)> + E(ex) + E(corr)=         383.817915660343
 IMat=  1 EOne=-0.982282424638D+03 ETwo= 0.383817915660D+03 Energy=-0.598464508977D+03
 1/2 <PG(P)>=         419.866987752158
 Ex=         -33.850388969635 Ec=          -2.198683122180
 1/2 <PG(P)> + E(ex) + E(corr)=         383.817915660343
 E= -323.647552125659     Delta-E=       -0.000000241042 Rises=F Damp=F
 DIIS: error= 1.92D-05 at cycle   3 NSaved=   3.
 NSaved= 3 IEnMin= 3 EnMin= -323.647552125659     IErMin= 3 ErrMin= 1.92D-05
 ErrMax= 1.92D-05  0.00D+00 EMaxC= 1.00D-01 BMatC= 6.96D-08 BMatP= 3.15D-07
 IDIUse=1 WtCom= 1.00D+00 WtEn= 0.00D+00
 Coeff-Com:  0.691D-02 0.316D+00 0.677D+00
 Coeff:      0.691D-02 0.316D+00 0.677D+00
 Gap=     0.237 Goal=   None    Shift=    0.000
 RMSDP=8.49D-07 MaxDP=2.49D-05 DE=-2.41D-07 OVMax= 1.18D-04

 Cycle  11  Pass 1  IDiag  1:
 One-electron energy=-0.982282329329D+03
 RMSU=  3.97D-07    CP:  1.00D+00  9.98D-01  6.70D-01
 Calling FoFDFT with Acc= 0.00D+00 ICntrl=  400011 IRadAn=       0.
 IMat=  1 1/2 <PG(P)>=         419.866877926398
 Remaining memory in FofDFT      511.74 Mw
 CkSvGd:  ISavGI=        -1 IRadAn=       4 IRASav=       0 ISavGd=        -1.
 CalDSu:  NPrtUS=   4 ThrOK=T IAlg=1 NPAlg=2 DoDPD=T LenP=       51360 LenD1P=             0.
 IPart=  0 IRanGd=          0 ScrnBf=T ScrnGd=T RCrit=4.00D+00 DoMicB=T.
 IPart=  1        21775 of        24556 points in      52 batches and      155 microbatches, Max-NSigAt=      12 Max-NSgAt2=      12
 IPart=  0        21604 of        23954 points in      51 batches and      172 microbatches, Max-NSigAt=      12 Max-NSgAt2=      12
 IPart=  3        21058 of        23346 points in      50 batches and      162 microbatches, Max-NSigAt=      12 Max-NSgAt2=      12
 IPart=  2        22270 of        25014 points in      52 batches and      151 microbatches, Max-NSigAt=      12 Max-NSgAt2=      12
 IMat=  1 Ex=         -33.850374805106 Ec=          -2.198682832379
 1/2 <PJ(P)> + E(ex) + E(corr)=         383.817820288913
 IMat=  1 EOne=-0.982282329329D+03 ETwo= 0.383817820289D+03 Energy=-0.598464509040D+03
 1/2 <PG(P)>=         419.866877926398
 Ex=         -33.850374805106 Ec=          -2.198682832379
 1/2 <PG(P)> + E(ex) + E(corr)=         383.817820288913
 E= -323.647552188811     Delta-E=       -0.000000063151 Rises=F Damp=F
 DIIS: error= 7.43D-06 at cycle   4 NSaved=   4.
 NSaved= 4 IEnMin= 4 EnMin= -323.647552188811     IErMin= 4 ErrMin= 7.43D-06
 ErrMax= 7.43D-06  0.00D+00 EMaxC= 1.00D-01 BMatC= 7.57D-09 BMatP= 6.96D-08
 IDIUse=1 WtCom= 1.00D+00 WtEn= 0.00D+00
 Coeff-Com: -0.149D-01 0.178D+00 0.426D+00 0.412D+00
 Coeff:     -0.149D-01 0.178D+00 0.426D+00 0.412D+00
 Gap=     0.237 Goal=   None    Shift=    0.000
 RMSDP=2.46D-07 MaxDP=1.26D-05 DE=-6.32D-08 OVMax= 3.91D-05

 Cycle  12  Pass 1  IDiag  1:
 One-electron energy=-0.982282061163D+03
 RMSU=  9.18D-08    CP:  1.00D+00  1.00D+00  7.00D-01  4.52D-01
 Calling FoFDFT with Acc= 0.00D+00 ICntrl=  400011 IRadAn=       0.
 IMat=  1 1/2 <PG(P)>=         419.866601961057
 Remaining memory in FofDFT      511.74 Mw
 CkSvGd:  ISavGI=        -1 IRadAn=       4 IRASav=       0 ISavGd=        -1.
 CalDSu:  NPrtUS=   4 ThrOK=T IAlg=1 NPAlg=2 DoDPD=T LenP=       51360 LenD1P=             0.
 IPart=  0 IRanGd=          0 ScrnBf=T ScrnGd=T RCrit=4.00D+00 DoMicB=T.
 IPart=  0        21067 of        23506 points in      51 batches and      186 microbatches, Max-NSigAt=      12 Max-NSgAt2=      12
 IPart=  2        21107 of        23250 points in      47 batches and      159 microbatches, Max-NSigAt=      12 Max-NSgAt2=      12
 IPart=  1        22235 of        25306 points in      56 batches and      145 microbatches, Max-NSigAt=      12 Max-NSgAt2=      12
 IPart=  3        22298 of        24808 points in      51 batches and      150 microbatches, Max-NSigAt=      12 Max-NSgAt2=      12
 IMat=  1 Ex=         -33.850367673349 Ec=          -2.198682172977
 1/2 <PJ(P)> + E(ex) + E(corr)=         383.817552114731
 IMat=  1 EOne=-0.982282061163D+03 ETwo= 0.383817552115D+03 Energy=-0.598464509048D+03
 1/2 <PG(P)>=         419.866601961057
 Ex=         -33.850367673349 Ec=          -2.198682172977
 1/2 <PG(P)> + E(ex) + E(corr)=         383.817552114731
 E= -323.647552196301     Delta-E=       -0.000000007491 Rises=F Damp=F
 DIIS: error= 1.15D-06 at cycle   5 NSaved=   5.
 NSaved= 5 IEnMin= 5 EnMin= -323.647552196301     IErMin= 5 ErrMin= 1.15D-06
 ErrMax= 1.15D-06  0.00D+00 EMaxC= 1.00D-01 BMatC= 9.69D-11 BMatP= 7.57D-09
 IDIUse=1 WtCom= 1.00D+00 WtEn= 0.00D+00
 Coeff-Com: -0.718D-02 0.781D-01 0.188D+00 0.200D+00 0.542D+00
 Coeff:     -0.718D-02 0.781D-01 0.188D+00 0.200D+00 0.542D+00
 Gap=     0.237 Goal=   None    Shift=    0.000
 RMSDP=4.44D-08 MaxDP=1.31D-06 DE=-7.49D-09 OVMax= 6.09D-06

 Cycle  13  Pass 1  IDiag  1:
 One-electron energy=-0.982281999160D+03
 RMSU=  3.89D-08    CP:  1.00D+00  1.00D+00  7.00D-01  4.92D-01  8.60D-01
 Calling FoFDFT with Acc= 0.00D+00 ICntrl=  400011 IRadAn=       0.
 IMat=  1 1/2 <PG(P)>=         419.866539156695
 Remaining memory in FofDFT      511.74 Mw
 CkSvGd:  ISavGI=        -1 IRadAn=       4 IRASav=       0 ISavGd=        -1.
 CalDSu:  NPrtUS=   4 ThrOK=T IAlg=1 NPAlg=2 DoDPD=T LenP=       51360 LenD1P=             0.
 IPart=  0 IRanGd=          0 ScrnBf=T ScrnGd=T RCrit=4.00D+00 DoMicB=T.
 IPart=  3        21523 of        23952 points in      53 batches and      163 microbatches, Max-NSigAt=      12 Max-NSgAt2=      12
 IPart=  0        21725 of        24072 points in      49 batches and      160 microbatches, Max-NSigAt=      12 Max-NSgAt2=      12
 IPart=  2        21077 of        23520 points in      49 batches and      166 microbatches, Max-NSigAt=      12 Max-NSgAt2=      12
 IPart=  1        22382 of        25326 points in      54 batches and      151 microbatches, Max-NSigAt=      12 Max-NSgAt2=      12
 IMat=  1 Ex=         -33.850366968147 Ec=          -2.198682076083
 1/2 <PJ(P)> + E(ex) + E(corr)=         383.817490112465
 IMat=  1 EOne=-0.982281999160D+03 ETwo= 0.383817490112D+03 Energy=-0.598464509048D+03
 1/2 <PG(P)>=         419.866539156695
 Ex=         -33.850366968147 Ec=          -2.198682076083
 1/2 <PG(P)> + E(ex) + E(corr)=         383.817490112465
 E= -323.647552196380     Delta-E=       -0.000000000079 Rises=F Damp=F
 DIIS: error= 4.79D-07 at cycle   6 NSaved=   6.
 NSaved= 6 IEnMin= 6 EnMin= -323.647552196380     IErMin= 6 ErrMin= 4.79D-07
 ErrMax= 4.79D-07  0.00D+00 EMaxC= 1.00D-01 BMatC= 3.33D-11 BMatP= 9.69D-11
 IDIUse=1 WtCom= 1.00D+00 WtEn= 0.00D+00
 Coeff-Com: -0.139D-02 0.117D-01 0.276D-01 0.390D-01 0.372D+00 0.551D+00
 Coeff:     -0.139D-02 0.117D-01 0.276D-01 0.390D-01 0.372D+00 0.551D+00
 Gap=     0.237 Goal=   None    Shift=    0.000
 RMSDP=1.73D-08 MaxDP=7.17D-07 DE=-7.86D-11 OVMax= 2.82D-06

 Cycle  14  Pass 1  IDiag  1:
 One-electron energy=-0.982282005644D+03
 RMSU=  7.59D-09    CP:  1.00D+00  1.00D+00  6.99D-01  4.89D-01  9.33D-01
                    CP:  6.44D-01
 Calling FoFDFT with Acc= 0.00D+00 ICntrl=  400011 IRadAn=       0.
 IMat=  1 1/2 <PG(P)>=         419.866545097983
 Remaining memory in FofDFT      511.74 Mw
 CkSvGd:  ISavGI=        -1 IRadAn=       4 IRASav=       0 ISavGd=        -1.
 CalDSu:  NPrtUS=   4 ThrOK=T IAlg=1 NPAlg=2 DoDPD=T LenP=       51360 LenD1P=             0.
 IPart=  0 IRanGd=          0 ScrnBf=T ScrnGd=T RCrit=4.00D+00 DoMicB=T.
 IPart=  2        21993 of        24422 points in      53 batches and      164 microbatches, Max-NSigAt=      12 Max-NSgAt2=      12
 IPart=  3        21159 of        23676 points in      51 batches and      180 microbatches, Max-NSigAt=      12 Max-NSgAt2=      12
 IPart=  0        21791 of        24524 points in      51 batches and      153 microbatches, Max-NSigAt=      12 Max-NSgAt2=      12
 IPart=  1        21764 of        24248 points in      50 batches and      143 microbatches, Max-NSigAt=      12 Max-NSgAt2=      12
 IMat=  1 Ex=         -33.850366427144 Ec=          -2.198682074567
 1/2 <PJ(P)> + E(ex) + E(corr)=         383.817496596272
 IMat=  1 EOne=-0.982282005644D+03 ETwo= 0.383817496596D+03 Energy=-0.598464509048D+03
 1/2 <PG(P)>=         419.866545097983
 Ex=         -33.850366427144 Ec=          -2.198682074567
 1/2 <PG(P)> + E(ex) + E(corr)=         383.817496596272
 E= -323.647552196414     Delta-E=       -0.000000000034 Rises=F Damp=F
 DIIS: error= 7.64D-08 at cycle   7 NSaved=   7.
 NSaved= 7 IEnMin= 7 EnMin= -323.647552196414     IErMin= 7 ErrMin= 7.64D-08
 ErrMax= 7.64D-08  0.00D+00 EMaxC= 1.00D-01 BMatC= 1.69D-12 BMatP= 3.33D-11
 IDIUse=1 WtCom= 1.00D+00 WtEn= 0.00D+00
 Coeff-Com: -0.142D-03-0.342D-03-0.114D-02 0.275D-02 0.146D+00 0.279D+00
 Coeff-Com:  0.574D+00
 Coeff:     -0.142D-03-0.342D-03-0.114D-02 0.275D-02 0.146D+00 0.279D+00
 Coeff:      0.574D+00
 Gap=     0.237 Goal=   None    Shift=    0.000
 RMSDP=4.22D-09 MaxDP=1.96D-07 DE=-3.40D-11 OVMax= 4.79D-07

 SCF Done:  E(RB3LYP) =  -323.647552196     A.U. after   14 cycles
            NFock= 14  Conv=0.42D-08     -V/T= 2.0039
 KE= 3.224034288346D+02 PE=-1.304685434479D+03 EE= 3.838174965963D+02
 Leave Link  502 at Sun Aug 29 12:38:21 2021, MaxMem=   536870912 cpu:       234.6
 (Enter /home/tmcstu/local/programs/gaussian09/g09/l601.exe)
 Copying SCF densities to generalized density rwf, IOpCl= 0 IROHF=0.

 **********************************************************************

            Population analysis using the SCF density.

 **********************************************************************

 Alpha  occ. eigenvalues --  -19.17796 -14.30858 -10.26217 -10.21583 -10.21366
 Alpha  occ. eigenvalues --  -10.19035 -10.18452  -1.08955  -0.94801  -0.80719
 Alpha  occ. eigenvalues --   -0.77363  -0.65897  -0.63798  -0.57381  -0.51641
 Alpha  occ. eigenvalues --   -0.49001  -0.46138  -0.44063  -0.44052  -0.41695
 Alpha  occ. eigenvalues --   -0.38321  -0.36662  -0.27672  -0.26637  -0.26532
 Alpha virt. eigenvalues --   -0.02865  -0.02406  -0.00446   0.02969   0.04009
 Alpha virt. eigenvalues --    0.07528   0.07737   0.12126   0.12153   0.13392
 Alpha virt. eigenvalues --    0.15595   0.17198   0.18186   0.18978   0.19883
 Alpha virt. eigenvalues --    0.21860   0.22192   0.23157   0.25499   0.26840
 Alpha virt. eigenvalues --    0.27865   0.28279   0.29298   0.31082   0.32474
 Alpha virt. eigenvalues --    0.33451   0.33838   0.34471   0.35346   0.37367
 Alpha virt. eigenvalues --    0.38169   0.40855   0.43062   0.45086   0.46192
 Alpha virt. eigenvalues --    0.48949   0.50631   0.54204   0.54846   0.58191
 Alpha virt. eigenvalues --    0.59240   0.61655   0.64057   0.64941   0.65113
 Alpha virt. eigenvalues --    0.68804   0.70098   0.74130   0.75849   0.80776
 Alpha virt. eigenvalues --    0.82762   0.84456   0.86572   0.88388   0.89795
 Alpha virt. eigenvalues --    0.94285   0.95665   0.96721   0.97475   1.01552
 Alpha virt. eigenvalues --    1.03556   1.07458   1.10561   1.11357   1.12940
 Alpha virt. eigenvalues --    1.13633   1.15598   1.15735   1.16780   1.18684
 Alpha virt. eigenvalues --    1.23400   1.24193   1.29301   1.29572   1.30261
 Alpha virt. eigenvalues --    1.32520   1.34488   1.41638   1.42341   1.44108
 Alpha virt. eigenvalues --    1.45106   1.46352   1.49058   1.54280   1.57250
 Alpha virt. eigenvalues --    1.58185   1.59350   1.59658   1.63489   1.66300
 Alpha virt. eigenvalues --    1.66994   1.68376   1.71016   1.72790   1.75024
 Alpha virt. eigenvalues --    1.77827   1.78150   1.81721   1.83541   1.85237
 Alpha virt. eigenvalues --    1.85321   1.92706   1.95162   1.97075   1.97923
 Alpha virt. eigenvalues --    2.04048   2.08673   2.09709   2.16569   2.18744
 Alpha virt. eigenvalues --    2.21230   2.22950   2.23751   2.28251   2.30920
 Alpha virt. eigenvalues --    2.36581   2.39804   2.55206   2.57999   2.77878
 Alpha virt. eigenvalues --    2.86484   2.90974   2.96011   2.98739   3.12426
 Alpha virt. eigenvalues --    3.15215   3.20948   3.22299   3.24962   3.25670
 Alpha virt. eigenvalues --    3.32163   3.33064   3.34524   3.36823   3.39776
 Alpha virt. eigenvalues --    3.41243   3.44044   3.49097   3.52066   3.53825
 Alpha virt. eigenvalues --    3.57204   3.59693   3.60337   3.63389   3.65970
 Alpha virt. eigenvalues --    3.71459   3.73637   3.75280   3.78210   3.79956
 Alpha virt. eigenvalues --    3.82188   3.86335   3.88420   3.93036   3.98906
 Alpha virt. eigenvalues --    4.00208   4.02065   4.02346   4.05954   4.06505
 Alpha virt. eigenvalues --    4.07355   4.11615   4.11764   4.14062   4.15100
 Alpha virt. eigenvalues --    4.16369   4.19028   4.20385   4.22466   4.25672
 Alpha virt. eigenvalues --    4.26175   4.27823   4.28606   4.29523   4.30666
 Alpha virt. eigenvalues --    4.33880   4.34080   4.37231   4.38215   4.39182
 Alpha virt. eigenvalues --    4.42517   4.43316   4.44302   4.44543   4.47200
 Alpha virt. eigenvalues --    4.49069   4.50408   4.51609   4.52709   4.54921
 Alpha virt. eigenvalues --    4.55259   4.57423   4.64125   4.65604   4.71391
 Alpha virt. eigenvalues --    4.75199   4.76513   4.78070   4.81654   4.85609
 Alpha virt. eigenvalues --    4.89779   4.92025   4.94187   4.96584   5.00367
 Alpha virt. eigenvalues --    5.06610   5.08799   5.09671   5.15576   5.15612
 Alpha virt. eigenvalues --    5.17361   5.22804   5.31819   5.32479   5.32738
 Alpha virt. eigenvalues --    5.33212   5.34146   5.36711   5.39947   5.44621
 Alpha virt. eigenvalues --    5.47187   5.52872   5.54825   5.56760   5.58392
 Alpha virt. eigenvalues --    5.65781   5.67011   5.69372   5.76646   5.77506
 Alpha virt. eigenvalues --    5.79729   5.92788   6.01287   6.05467   6.08412
 Alpha virt. eigenvalues --    6.11363   6.15370   6.22727   6.27311   6.30328
 Alpha virt. eigenvalues --    6.39246   6.46278   6.47900   6.56363   6.60462
 Alpha virt. eigenvalues --    6.82404   7.06611   7.33050   9.13905  12.26078
 Alpha virt. eigenvalues --   12.38098  15.45590  17.23678  18.51416  22.07496
          Condensed to atoms (all electrons):
               1          2          3          4          5          6
     1  C    4.666550   0.420023  -0.037674  -0.053899  -0.110143   0.514317
     2  C    0.420023   5.081309   0.510389  -0.012205  -0.056114  -0.042695
     3  C   -0.037674   0.510389   4.519951   0.519920  -0.048507  -0.022587
     4  C   -0.053899  -0.012205   0.519920   4.977185   0.448788  -0.039723
     5  C   -0.110143  -0.056114  -0.048507   0.448788   4.675525   0.499608
     6  N    0.514317  -0.042695  -0.022587  -0.039723   0.499608   6.537963
     7  H    0.459192  -0.077932   0.005360  -0.005249   0.008592  -0.047685
     8  H   -0.018681   0.416947  -0.044430   0.005675   0.000013   0.006355
     9  H   -0.001773   0.010013  -0.039014   0.423517  -0.029359   0.006197
    10  H    0.008899  -0.007361   0.009950  -0.082771   0.464030  -0.048456
    11  O    0.007028  -0.068774   0.305864  -0.064540   0.004478  -0.000561
    12  H    0.001756  -0.003174  -0.033159   0.006729  -0.000790   0.000408
               7          8          9         10         11         12
     1  C    0.459192  -0.018681  -0.001773   0.008899   0.007028   0.001756
     2  C   -0.077932   0.416947   0.010013  -0.007361  -0.068774  -0.003174
     3  C    0.005360  -0.044430  -0.039014   0.009950   0.305864  -0.033159
     4  C   -0.005249   0.005675   0.423517  -0.082771  -0.064540   0.006729
     5  C    0.008592   0.000013  -0.029359   0.464030   0.004478  -0.000790
     6  N   -0.047685   0.006355   0.006197  -0.048456  -0.000561   0.000408
     7  H    0.606592  -0.004749   0.000191   0.000261  -0.000409  -0.000064
     8  H   -0.004749   0.616449  -0.000279   0.000156  -0.006974   0.004142
     9  H    0.000191  -0.000279   0.585878  -0.006299   0.003971  -0.000669
    10  H    0.000261   0.000156  -0.006299   0.602805  -0.000246   0.000110
    11  O   -0.000409  -0.006974   0.003971  -0.000246   7.849260   0.343848
    12  H   -0.000064   0.004142  -0.000669   0.000110   0.343848   0.480965
 Mulliken charges:
               1
     1  C    0.144406
     2  C   -0.170426
     3  C    0.353938
     4  C   -0.123429
     5  C    0.143879
     6  N   -0.363141
     7  H    0.055899
     8  H    0.025374
     9  H    0.047625
    10  H    0.058922
    11  O   -0.372945
    12  H    0.199898
 Sum of Mulliken charges =  -0.00000
 Mulliken charges with hydrogens summed into heavy atoms:
               1
     1  C    0.200305
     2  C   -0.145052
     3  C    0.353938
     4  C   -0.075804
     5  C    0.202801
     6  N   -0.363141
    11  O   -0.173046
 Electronic spatial extent (au):  <R**2>=            638.3289
 Charge=             -0.0000 electrons
 Dipole moment (field-independent basis, Debye):
    X=             -2.3784    Y=              1.2938    Z=              0.0002  Tot=              2.7076
 Quadrupole moment (field-independent basis, Debye-Ang):
   XX=            -44.2195   YY=            -33.7801   ZZ=            -43.2121
   XY=             -4.5031   XZ=             -0.0007   YZ=              0.0010
 Traceless Quadrupole moment (field-independent basis, Debye-Ang):
   XX=             -3.8156   YY=              6.6238   ZZ=             -2.8082
   XY=             -4.5031   XZ=             -0.0007   YZ=              0.0010
 Octapole moment (field-independent basis, Debye-Ang**2):
  XXX=            -33.1965  YYY=              0.3368  ZZZ=              0.0049  XYY=             -1.9854
  XXY=             12.0759  XXZ=              0.0044  XZZ=             -3.4350  YZZ=             -0.0142
  YYZ=              0.0008  XYZ=             -0.0005
 Hexadecapole moment (field-independent basis, Debye-Ang**3):
 XXXX=           -527.4967 YYYY=           -259.0209 ZZZZ=            -47.8556 XXXY=            -38.0742
 XXXZ=             -0.0011 YYYX=             -2.7060 YYYZ=              0.0017 ZZZX=              0.0046
 ZZZY=             -0.0031 XXYY=           -108.3059 XXZZ=            -96.2014 YYZZ=            -61.6566
 XXYZ=              0.0028 YYXZ=              0.0001 ZZXY=             -0.4813
 N-N= 2.748169568516D+02 E-N=-1.304685449950D+03  KE= 3.224034288346D+02
 No NMR shielding tensors so no spin-rotation constants.
 Leave Link  601 at Sun Aug 29 12:38:21 2021, MaxMem=   536870912 cpu:         0.4
 (Enter /home/tmcstu/local/programs/gaussian09/g09/l801.exe)
 DoSCS=F DFT=T ScalE2(SS,OS)=  1.000000  1.000000
 ExpMin= 7.41D-02 ExpMax= 1.48D+04 ExpMxC= 5.05D+02 IAcc=3 IRadAn=         5 AccDes= 0.00D+00
 HarFok:  IExCor=  205 AccDes= 0.00D+00 IRadAn=         5 IDoV=-2 UseB2=F ITyADJ=14
 ICtDFT= 12500011 ScaDFX=  1.000000  1.000000  1.000000  1.000000
 Largest valence mixing into a core orbital is  2.78D-05
 Largest core mixing into a valence orbital is  1.29D-05
 Range of M.O.s used for correlation:     8   280
 NBasis=   280 NAE=    25 NBE=    25 NFC=     7 NFV=     0
 NROrb=    273 NOA=    18 NOB=    18 NVA=   255 NVB=   255

 **** Warning!!: The largest alpha MO coefficient is  0.12907979D+02

 Leave Link  801 at Sun Aug 29 12:38:21 2021, MaxMem=   536870912 cpu:         0.3
 (Enter /home/tmcstu/local/programs/gaussian09/g09/l906.exe)
 DoSCS=F DFT=T ScalE2(SS,OS)=  1.000000  1.000000
 FulOut=F Deriv=F AODrv=F NAtomX=    12
   MMem=         349  MDisk=          18 MDiskD=          18
  W3Min=     1468800 MinDsk=     2091010 NBas6D=         320
 NBas2D=       52053    NTT=       51360    LW2=     2000000
    MDV=   536379811 MDiskM=        8349 NBas2p=       50025
 Fully direct method using O(OVN) memory.
 IMap=   1   2   3   4   5   6   7   8   9  10  11  12  13  14  15  16  17  18
 JobTyp=1 Pass  1:  I=   1 to  18 NPSUse=  4 ParTrn=T ParDer=T DoDerP=F.
 Spin components of T(2) and E(2):
     alpha-alpha T2 =       0.1256973571D+00 E2=     -0.2293457726D+00
     alpha-beta  T2 =       0.6393225751D+00 E2=     -0.1266267812D+01
     beta-beta   T2 =       0.1256973571D+00 E2=     -0.2293457726D+00
 The integrals were generated   1 times.
 E2(B3LYP) =    -0.1724959357D+01 E(B3LYP) =    -0.32537251155331D+03
 Leave Link  906 at Sun Aug 29 12:39:06 2021, MaxMem=   536870912 cpu:       177.2
 (Enter /home/tmcstu/local/programs/gaussian09/g09/l608.exe)
 IExCor=  100 DFT=F Ex=HF Corr=None ExCW=0 ScaHFX=  1.000000
 ScaDFX=  1.000000  1.000000  1.000000  1.000000 ScalE2=  1.000000  1.000000
 IRadAn=      4 IRanWt=     -1 IRanGd=            0 ICorTp=0 IEmpDi=  4
 IExCor=  205 DFT=T Ex=S Corr=VWN ExCW=0 ScaHFX=  0.000000
 ScaDFX=  1.000000  1.000000  1.000000  1.000000 ScalE2=  1.000000  1.000000
 IRadAn=      4 IRanWt=     -1 IRanGd=            0 ICorTp=0 IEmpDi=  4
 IExCor=  402 DFT=T Ex=B Corr=LYP ExCW=0 ScaHFX=  0.000000
 ScaDFX=  1.000000  1.000000  1.000000  1.000000 ScalE2=  1.000000  1.000000
 IRadAn=      4 IRanWt=     -1 IRanGd=            0 ICorTp=0 IEmpDi=  4
 A total of   3 models will be applied.

 Results using SCF density:
 FoFJK:  IHMeth= 0 ICntrl=     500 DoSepK=F KAlg= 0 I1Cent=   0 FoldK=F
 IRaf=         0 NMat=   1 IRICut=       1 DoRegI=T DoRafI=F ISym2E= 0.
 FoFCou: FMM=F IPFlag=           0 FMFlag=           0 FMFlg1=           0
         NFxFlg=           0 DoJE=F BraDBF=F KetDBF=F FulRan=T
         wScrn=  0.000000 ICntrl=     500 IOpCl=  1 I1Cent=           0 NGrid=           0
         NMat0=    1 NMatS0=      1 NMatT0=    0 NMatD0=    1 NMtDS0=    0 NMtDT0=    0
 Symmetry not used in FoFCou.
 ET=  322.403429 EV=-1304.685450 EJ=  428.372833 EK=  -42.531357 ENuc=  274.816957

 A=0 I=   1 IExCor=  100 IRadAn=       4 ScaHFX=  1.000000
            ScaDFX=  1.000000  1.000000  1.000000  1.000000
 HFx=  0.000000  0.000000  1.000000  0.000000  0.000000
 DFx=  0.000000  0.000000  1.000000  0.000000  0.000000
 DFc=  0.000000  0.000000  1.000000  0.000000  0.000000
            ENTVJ= -279.092231 Ex=  -42.531357 Ec=    0.000000 ETotM2e= -707.4650642634  ETot= -321.6235885754

 A=0 I=   2 IExCor=  205 IRadAn=       4 ScaHFX=  0.000000
            ScaDFX=  1.000000  1.000000  1.000000  1.000000
 HFx=  0.000000  0.000000  1.000000  0.000000  0.000000
 DFx=  0.000000  0.000000  1.000000  0.000000  0.000000
 DFc=  0.000000  0.000000  1.000000  0.000000  0.000000
            ENTVJ= -279.092231 Ex=  -38.525819 Ec=   -4.254857 ETotM2e= -750.2457396549  ETot= -321.8729067219

 A=0 I=   3 IExCor=  402 IRadAn=       4 ScaHFX=  0.000000
            ScaDFX=  1.000000  1.000000  1.000000  1.000000
 HFx=  0.000000  0.000000  1.000000  0.000000  0.000000
 DFx=  0.000000  0.000000  1.000000  0.000000  0.000000
 DFc=  0.000000  0.000000  1.000000  0.000000  0.000000
            ENTVJ= -279.092231 Ex=  -42.733752 Ec=   -1.716370 ETotM2e= -751.9151863526  ETot= -323.5423534195
 Leave Link  608 at Sun Aug 29 12:39:12 2021, MaxMem=   536870912 cpu:        24.0
 (Enter /home/tmcstu/local/programs/gaussian09/g09/l9999.exe)

 This type of calculation cannot be archived.


 A MAN IS EXACTLY AS GREAT AS THE TIDE SURGING
 BENEATH HIM.      - BISMARCK
 Job cpu time:       0 days  0 hours  7 minutes 20.4 seconds.
 File lengths (MBytes):  RWF=     44 Int=      0 D2E=      0 Chk=      6 Scr=      1
 Normal termination of Gaussian 09 at Sun Aug 29 12:39:12 2021.
