 Entering Gaussian System, Link 0=g09
 AtFile(1): pc-2.gbs
            -H     0
            S    4   1.00
                  0.754230D+02           0.240650D-02
                  0.113500D+02           0.184870D-01
                  0.259930D+01           0.897420D-01
                  0.735130D+00           0.281110D+00
            S    1   1.00
                  0.231670D+00           0.100000D+01
            S    1   1.00
                  0.741470D-01           0.100000D+01
            P    1   1.00
                  0.160000D+01           0.100000D+01
            P    1   1.00
                  0.450000D+00           0.100000D+01
            D    1   1.00
                  0.125000D+01           0.100000D+01
            ****
            -C     0
            S    7   1.00
                  0.785710D+04           0.568250D-03
                  0.117870D+04           0.439150D-02
                  0.268320D+03           0.225040D-01
                  0.759480D+02           0.866530D-01
                  0.245590D+02           0.244050D+00
                  0.862120D+01           0.441480D+00
                  0.312780D+01           0.353320D+00
            S    7   1.00
                  0.117870D+04          -0.594920D-06
                  0.268320D+03          -0.627480D-04
                  0.759480D+02          -0.757730D-03
                  0.245590D+02          -0.733080D-02
                  0.862120D+01          -0.389320D-01
                  0.312780D+01          -0.889080D-01
                  0.822020D+00           0.216890D+00
            S    1   1.00
                  0.330170D+00           0.100000D+01
            S    1   1.00
                  0.114630D+00           0.100000D+01
            P    4   1.00
                  0.337750D+02           0.602940D-02
                  0.767660D+01           0.432280D-01
                  0.223570D+01           0.163010D+00
                  0.764470D+00           0.365040D+00
            P    1   1.00
                  0.262320D+00           0.100000D+01
            P    1   1.00
                  0.846380D-01           0.100000D+01
            D    1   1.00
                  0.140000D+01           0.100000D+01
            D    1   1.00
                  0.450000D+00           0.100000D+01
            F    1   1.00
                  0.950000D+00           0.100000D+01
            ****
            -N     0
            S    7   1.00
                  0.111010D+05           0.545700D-03
                  0.166530D+04           0.421810D-02
                  0.379080D+03           0.216450D-01
                  0.107300D+03           0.837760D-01
                  0.347470D+02           0.238810D+00
                  0.122490D+02           0.439940D+00
                  0.447430D+01           0.363640D+00
            S    7   1.00
                  0.166530D+04          -0.150060D-05
                  0.379080D+03          -0.587530D-04
                  0.107300D+03          -0.774530D-03
                  0.347470D+02          -0.721610D-02
                  0.122490D+02          -0.393380D-01
                  0.447430D+01          -0.906110D-01
                  0.124040D+01           0.198820D+00
            S    1   1.00
                  0.487430D+00           0.100000D+01
            S    1   1.00
                  0.164840D+00           0.100000D+01
            P    4   1.00
                  0.479340D+02           0.617060D-02
                  0.109990D+02           0.442600D-01
                  0.324720D+01           0.168250D+00
                  0.111140D+01           0.368480D+00
            P    1   1.00
                  0.379880D+00           0.100000D+01
            P    1   1.00
                  0.120680D+00           0.100000D+01
            D    1   1.00
                  0.180000D+01           0.100000D+01
            D    1   1.00
                  0.550000D+00           0.100000D+01
            F    1   1.00
                  0.102000D+01           0.100000D+01
            ****
            -O     0
            S    7   1.00
                  0.147820D+05           0.535190D-03
                  0.221730D+04           0.413750D-02
                  0.504740D+03           0.212450D-01
                  0.142870D+03           0.824530D-01
                  0.463000D+02           0.236710D+00
                  0.163370D+02           0.440390D+00
                  0.598280D+01           0.364650D+00
            S    7   1.00
                  0.221730D+04          -0.192750D-05
                  0.504740D+03          -0.579640D-04
                  0.142870D+03          -0.794940D-03
                  0.463000D+02          -0.731250D-02
                  0.163370D+02          -0.405740D-01
                  0.598280D+01          -0.915940D-01
                  0.167180D+01           0.209400D+00
            S    1   1.00
                  0.646620D+00           0.100000D+01
            S    1   1.00
                  0.216690D+00           0.100000D+01
            P    4   1.00
                  0.604240D+02           0.689490D-02
                  0.139350D+02           0.490050D-01
                  0.415310D+01           0.182550D+00
                  0.141580D+01           0.376330D+00
            P    1   1.00
                  0.475490D+00           0.100000D+01
            P    1   1.00
                  0.145290D+00           0.100000D+01
            D    1   1.00
                  0.220000D+01           0.100000D+01
            D    1   1.00
                  0.650000D+00           0.100000D+01
            F    1   1.00
                  0.110000D+01           0.100000D+01
            ****
 Initial command:
 /public3/home/sc51754/softwares/g09e01/l1.exe "./Gau-35000.inp" -scrdir="./"
 Entering Link 1 = /public3/home/sc51754/softwares/g09e01/l1.exe PID=     35001.
  
 Copyright (c) 1988,1990,1992,1993,1995,1998,2003,2009,2015,
            Gaussian, Inc.  All Rights Reserved.
  
 This is part of the Gaussian(R) 09 program.  It is based on
 the Gaussian(R) 03 system (copyright 2003, Gaussian, Inc.),
 the Gaussian(R) 98 system (copyright 1998, Gaussian, Inc.),
 the Gaussian(R) 94 system (copyright 1995, Gaussian, Inc.),
 the Gaussian 92(TM) system (copyright 1992, Gaussian, Inc.),
 the Gaussian 90(TM) system (copyright 1990, Gaussian, Inc.),
 the Gaussian 88(TM) system (copyright 1988, Gaussian, Inc.),
 the Gaussian 86(TM) system (copyright 1986, Carnegie Mellon
 University), and the Gaussian 82(TM) system (copyright 1983,
 Carnegie Mellon University). Gaussian is a federally registered
 trademark of Gaussian, Inc.
  
 This software contains proprietary and confidential information,
 including trade secrets, belonging to Gaussian, Inc.
  
 This software is provided under written license and may be
 used, copied, transmitted, or stored only in accord with that
 written license.
  
 The following legend is applicable only to US Government
 contracts under FAR:
  
                    RESTRICTED RIGHTS LEGEND
  
 Use, reproduction and disclosure by the US Government is
 subject to restrictions as set forth in subparagraphs (a)
 and (c) of the Commercial Computer Software - Restricted
 Rights clause in FAR 52.227-19.
  
 Gaussian, Inc.
 340 Quinnipiac St., Bldg. 40, Wallingford CT 06492
  
  
 ---------------------------------------------------------------
 Warning -- This program may not be used in any manner that
 competes with the business of Gaussian, Inc. or will provide
 assistance to any competitor of Gaussian, Inc.  The licensee
 of this program is prohibited from giving any competitor of
 Gaussian, Inc. access to this program.  By using this program,
 the user acknowledges that Gaussian, Inc. is engaged in the
 business of creating and licensing software in the field of
 computational chemistry and represents and warrants to the
 licensee that it is not a competitor of Gaussian, Inc. and that
 it will not use this program in any manner prohibited above.
 ---------------------------------------------------------------
  

 Cite this work as:
 Gaussian 09, Revision E.01,
 M. J. Frisch, G. W. Trucks, H. B. Schlegel, G. E. Scuseria, 
 M. A. Robb, J. R. Cheeseman, G. Scalmani, V. Barone, B. Mennucci, 
 G. A. Petersson, H. Nakatsuji, M. Caricato, X. Li, H. P. Hratchian, 
 A. F. Izmaylov, J. Bloino, G. Zheng, J. L. Sonnenberg, M. Hada, 
 M. Ehara, K. Toyota, R. Fukuda, J. Hasegawa, M. Ishida, T. Nakajima, 
 Y. Honda, O. Kitao, H. Nakai, T. Vreven, J. A. Montgomery, Jr., 
 J. E. Peralta, F. Ogliaro, M. Bearpark, J. J. Heyd, E. Brothers, 
 K. N. Kudin, V. N. Staroverov, T. Keith, R. Kobayashi, J. Normand, 
 K. Raghavachari, A. Rendell, J. C. Burant, S. S. Iyengar, J. Tomasi, 
 M. Cossi, N. Rega, J. M. Millam, M. Klene, J. E. Knox, J. B. Cross, 
 V. Bakken, C. Adamo, J. Jaramillo, R. Gomperts, R. E. Stratmann, 
 O. Yazyev, A. J. Austin, R. Cammi, C. Pomelli, J. W. Ochterski, 
 R. L. Martin, K. Morokuma, V. G. Zakrzewski, G. A. Voth, 
 P. Salvador, J. J. Dannenberg, S. Dapprich, A. D. Daniels, 
 O. Farkas, J. B. Foresman, J. V. Ortiz, J. Cioslowski, 
 and D. J. Fox, Gaussian, Inc., Wallingford CT, 2013.
 
 ******************************************
 Gaussian 09:  EM64L-G09RevE.01 30-Nov-2015
                27-Aug-2021 
 ******************************************
 %nprocshared=64
 Will use up to   64 processors via shared memory.
 %mem=128GB
 %chk=HY_M062X_PC2_OPT_FREQ.chk
 ---------------------
 #p opt freq M062X/gen
 ---------------------
 1/14=-1,18=20,19=15,26=3,38=1/1,3;
 2/9=110,12=2,17=6,18=5,40=1/2;
 3/5=7,11=2,16=1,25=1,30=1,71=1,74=-55/1,2,3;
 4//1;
 5/5=2,38=5/2;
 6/7=2,8=2,9=2,10=2,28=1/1;
 7//1,2,3,16;
 1/14=-1,18=20,19=15,26=3/3(2);
 2/9=110/2;
 99//99;
 2/9=110/2;
 3/5=7,6=1,11=2,16=1,25=1,30=1,71=1,74=-55,82=7/1,2,3;
 4/5=5,16=3,69=1/1;
 5/5=2,38=5/2;
 7//1,2,3,16;
 1/14=-1,18=20,19=15,26=3/3(-5);
 2/9=110/2;
 6/7=2,8=2,9=2,10=2,19=2,28=1/1;
 99/9=1/99;
 Leave Link    1 at Fri Aug 27 00:16:01 2021, MaxMem= 17179869184 cpu:         5.3
 (Enter /public3/home/sc51754/softwares/g09e01/l101.exe)
 ---------------------
 HY_M062X_PC2_OPT_FREQ
 ---------------------
 Symbolic Z-matrix:
 Charge =  0 Multiplicity = 1
 O                     0.00837   2.23974   0. 
 N                    -1.17143   0.29602   0. 
 C                     0.        0.89831   0. 
 C                     1.21926   0.22535   0. 
 C                    -1.18415  -1.03535   0. 
 C                     1.18363  -1.14867   0. 
 C                    -0.04131  -1.80488   0. 
 H                    -0.91394   2.51588   0. 
 H                     2.14363   0.78426   0. 
 H                    -2.16362  -1.50192   0. 
 H                     2.10659  -1.71377   0. 
 H                    -0.10426  -2.88308   0. 
 
 NAtoms=     12 NQM=       12 NQMF=       0 NMMI=      0 NMMIF=      0
                NMic=       0 NMicF=      0.
                    Isotopes and Nuclear Properties:
 (Nuclear quadrupole moments (NQMom) in fm**2, nuclear magnetic moments (NMagM)
  in nuclear magnetons)

  Atom         1           2           3           4           5           6           7           8           9          10
 IAtWgt=          16          14          12          12          12          12          12           1           1           1
 AtmWgt=  15.9949146  14.0030740  12.0000000  12.0000000  12.0000000  12.0000000  12.0000000   1.0078250   1.0078250   1.0078250
 NucSpn=           0           2           0           0           0           0           0           1           1           1
 AtZEff=   0.0000000   0.0000000   0.0000000   0.0000000   0.0000000   0.0000000   0.0000000   0.0000000   0.0000000   0.0000000
 NQMom=    0.0000000   2.0440000   0.0000000   0.0000000   0.0000000   0.0000000   0.0000000   0.0000000   0.0000000   0.0000000
 NMagM=    0.0000000   0.4037610   0.0000000   0.0000000   0.0000000   0.0000000   0.0000000   2.7928460   2.7928460   2.7928460
 AtZNuc=   8.0000000   7.0000000   6.0000000   6.0000000   6.0000000   6.0000000   6.0000000   1.0000000   1.0000000   1.0000000

  Atom        11          12
 IAtWgt=           1           1
 AtmWgt=   1.0078250   1.0078250
 NucSpn=           1           1
 AtZEff=   0.0000000   0.0000000
 NQMom=    0.0000000   0.0000000
 NMagM=    2.7928460   2.7928460
 AtZNuc=   1.0000000   1.0000000
 Leave Link  101 at Fri Aug 27 00:16:02 2021, MaxMem= 17179869184 cpu:         9.4
 (Enter /public3/home/sc51754/softwares/g09e01/l103.exe)

 GradGradGradGradGradGradGradGradGradGradGradGradGradGradGradGradGradGrad
 Berny optimization.
 Initialization pass.
                           ----------------------------
                           !    Initial Parameters    !
                           ! (Angstroms and Degrees)  !
 --------------------------                            --------------------------
 ! Name  Definition              Value          Derivative Info.                !
 --------------------------------------------------------------------------------
 ! R1    R(1,3)                  1.3415         estimate D2E/DX2                !
 ! R2    R(1,8)                  0.9628         estimate D2E/DX2                !
 ! R3    R(2,3)                  1.3172         estimate D2E/DX2                !
 ! R4    R(2,5)                  1.3314         estimate D2E/DX2                !
 ! R5    R(3,4)                  1.3927         estimate D2E/DX2                !
 ! R6    R(4,6)                  1.3745         estimate D2E/DX2                !
 ! R7    R(4,9)                  1.0802         estimate D2E/DX2                !
 ! R8    R(5,7)                  1.3778         estimate D2E/DX2                !
 ! R9    R(5,10)                 1.0849         estimate D2E/DX2                !
 ! R10   R(6,7)                  1.3896         estimate D2E/DX2                !
 ! R11   R(6,11)                 1.0822         estimate D2E/DX2                !
 ! R12   R(7,12)                 1.08           estimate D2E/DX2                !
 ! A1    A(3,1,8)              106.3104         estimate D2E/DX2                !
 ! A2    A(3,2,5)              117.7571         estimate D2E/DX2                !
 ! A3    A(1,3,2)              117.5674         estimate D2E/DX2                !
 ! A4    A(1,3,4)              118.5383         estimate D2E/DX2                !
 ! A5    A(2,3,4)              123.8942         estimate D2E/DX2                !
 ! A6    A(3,4,6)              117.4104         estimate D2E/DX2                !
 ! A7    A(3,4,9)              119.945          estimate D2E/DX2                !
 ! A8    A(6,4,9)              122.6446         estimate D2E/DX2                !
 ! A9    A(2,5,7)              123.4071         estimate D2E/DX2                !
 ! A10   A(2,5,10)             116.018          estimate D2E/DX2                !
 ! A11   A(7,5,10)             120.5749         estimate D2E/DX2                !
 ! A12   A(4,6,7)              119.6636         estimate D2E/DX2                !
 ! A13   A(4,6,11)             119.9925         estimate D2E/DX2                !
 ! A14   A(7,6,11)             120.3439         estimate D2E/DX2                !
 ! A15   A(5,7,6)              117.8675         estimate D2E/DX2                !
 ! A16   A(5,7,12)             120.6134         estimate D2E/DX2                !
 ! A17   A(6,7,12)             121.519          estimate D2E/DX2                !
 ! D1    D(8,1,3,2)              0.0            estimate D2E/DX2                !
 ! D2    D(8,1,3,4)            180.0            estimate D2E/DX2                !
 ! D3    D(5,2,3,1)            180.0            estimate D2E/DX2                !
 ! D4    D(5,2,3,4)              0.0            estimate D2E/DX2                !
 ! D5    D(3,2,5,7)              0.0            estimate D2E/DX2                !
 ! D6    D(3,2,5,10)           180.0            estimate D2E/DX2                !
 ! D7    D(1,3,4,6)            180.0            estimate D2E/DX2                !
 ! D8    D(1,3,4,9)              0.0            estimate D2E/DX2                !
 ! D9    D(2,3,4,6)              0.0            estimate D2E/DX2                !
 ! D10   D(2,3,4,9)            180.0            estimate D2E/DX2                !
 ! D11   D(3,4,6,7)              0.0            estimate D2E/DX2                !
 ! D12   D(3,4,6,11)           180.0            estimate D2E/DX2                !
 ! D13   D(9,4,6,7)            180.0            estimate D2E/DX2                !
 ! D14   D(9,4,6,11)             0.0            estimate D2E/DX2                !
 ! D15   D(2,5,7,6)              0.0            estimate D2E/DX2                !
 ! D16   D(2,5,7,12)           180.0            estimate D2E/DX2                !
 ! D17   D(10,5,7,6)           180.0            estimate D2E/DX2                !
 ! D18   D(10,5,7,12)            0.0            estimate D2E/DX2                !
 ! D19   D(4,6,7,5)              0.0            estimate D2E/DX2                !
 ! D20   D(4,6,7,12)           180.0            estimate D2E/DX2                !
 ! D21   D(11,6,7,5)           180.0            estimate D2E/DX2                !
 ! D22   D(11,6,7,12)            0.0            estimate D2E/DX2                !
 --------------------------------------------------------------------------------
 Trust Radius=3.00D-01 FncErr=1.00D-07 GrdErr=1.00D-06
 Number of steps in this run=     61 maximum allowed number of steps=    100.
 GradGradGradGradGradGradGradGradGradGradGradGradGradGradGradGradGradGrad

 Leave Link  103 at Fri Aug 27 00:16:02 2021, MaxMem= 17179869184 cpu:         0.2
 (Enter /public3/home/sc51754/softwares/g09e01/l202.exe)
                          Input orientation:                          
 ---------------------------------------------------------------------
 Center     Atomic      Atomic             Coordinates (Angstroms)
 Number     Number       Type             X           Y           Z
 ---------------------------------------------------------------------
      1          8           0        0.008372    2.239736    0.000000
      2          7           0       -1.171427    0.296023    0.000000
      3          6           0        0.000000    0.898309    0.000000
      4          6           0        1.219264    0.225352    0.000000
      5          6           0       -1.184145   -1.035351    0.000000
      6          6           0        1.183632   -1.148671    0.000000
      7          6           0       -0.041314   -1.804878    0.000000
      8          1           0       -0.913944    2.515883    0.000000
      9          1           0        2.143627    0.784264    0.000000
     10          1           0       -2.163617   -1.501920    0.000000
     11          1           0        2.106589   -1.713772    0.000000
     12          1           0       -0.104256   -2.883075    0.000000
 ---------------------------------------------------------------------
                    Distance matrix (angstroms):
                    1          2          3          4          5
     1  O    0.000000
     2  N    2.273752   0.000000
     3  C    1.341453   1.317190   0.000000
     4  C    2.350320   2.391735   1.392651   0.000000
     5  C    3.485440   1.331435   2.267430   2.713991   0.000000
     6  C    3.586438   2.762869   2.364553   1.374485   2.370487
     7  C    4.044919   2.385569   2.703503   2.389747   1.377764
     8  H    0.962769   2.234743   1.857913   3.130033   3.561498
     9  H    2.584127   3.350815   2.146659   1.080199   3.792765
    10  H    4.326376   2.053543   3.231461   3.798335   1.084920
    11  H    4.475795   3.845083   3.355694   2.132498   3.359938
    12  H    5.124049   3.353434   3.782821   3.378465   2.140151
                    6          7          8          9         10
     6  C    0.000000
     7  C    1.389640   0.000000
     8  H    4.222414   4.407999   0.000000
     9  H    2.158200   3.387864   3.513865   0.000000
    10  H    3.365837   2.143818   4.207662   4.876370   0.000000
    11  H    1.082215   2.149834   5.197461   2.498311   4.275458
    12  H    2.160281   1.080033   5.459335   4.301436   2.479628
                   11         12
    11  H    0.000000
    12  H    2.501021   0.000000
 Stoichiometry    C5H5NO
 Framework group  CS[SG(C5H5NO)]
 Deg. of freedom    21
 Full point group                 CS      NOp   2
 Largest Abelian subgroup         CS      NOp   2
 Largest concise Abelian subgroup C1      NOp   1
                         Standard orientation:                         
 ---------------------------------------------------------------------
 Center     Atomic      Atomic             Coordinates (Angstroms)
 Number     Number       Type             X           Y           Z
 ---------------------------------------------------------------------
      1          8           0        0.008372    2.239736    0.000000
      2          7           0       -1.171427    0.296023    0.000000
      3          6           0       -0.000000    0.898309    0.000000
      4          6           0        1.219264    0.225352    0.000000
      5          6           0       -1.184145   -1.035351    0.000000
      6          6           0        1.183632   -1.148671    0.000000
      7          6           0       -0.041314   -1.804878    0.000000
      8          1           0       -0.913944    2.515883    0.000000
      9          1           0        2.143627    0.784264    0.000000
     10          1           0       -2.163617   -1.501920    0.000000
     11          1           0        2.106589   -1.713772    0.000000
     12          1           0       -0.104257   -2.883075    0.000000
 ---------------------------------------------------------------------
 Rotational constants (GHZ):      5.9244098      2.8053779      1.9038502
 Leave Link  202 at Fri Aug 27 00:16:02 2021, MaxMem= 17179869184 cpu:         7.2
 (Enter /public3/home/sc51754/softwares/g09e01/l301.exe)
 General basis read from cards:  (5D, 7F)
 Centers:       8      9     10     11     12
 S 4 1.00
     Exponent=  7.5423000000D+01 Coefficients=  2.4065000000D-03
     Exponent=  1.1350000000D+01 Coefficients=  1.8487000000D-02
     Exponent=  2.5993000000D+00 Coefficients=  8.9742000000D-02
     Exponent=  7.3513000000D-01 Coefficients=  2.8111000000D-01
 S 1 1.00
     Exponent=  2.3167000000D-01 Coefficients=  1.0000000000D+00
 S 1 1.00
     Exponent=  7.4147000000D-02 Coefficients=  1.0000000000D+00
 P 1 1.00
     Exponent=  1.6000000000D+00 Coefficients=  1.0000000000D+00
 P 1 1.00
     Exponent=  4.5000000000D-01 Coefficients=  1.0000000000D+00
 D 1 1.00
     Exponent=  1.2500000000D+00 Coefficients=  1.0000000000D+00
 ****
 Centers:       3      4      5      6      7
 S 7 1.00
     Exponent=  7.8571000000D+03 Coefficients=  5.6825000000D-04
     Exponent=  1.1787000000D+03 Coefficients=  4.3915000000D-03
     Exponent=  2.6832000000D+02 Coefficients=  2.2504000000D-02
     Exponent=  7.5948000000D+01 Coefficients=  8.6653000000D-02
     Exponent=  2.4559000000D+01 Coefficients=  2.4405000000D-01
     Exponent=  8.6212000000D+00 Coefficients=  4.4148000000D-01
     Exponent=  3.1278000000D+00 Coefficients=  3.5332000000D-01
 S 7 1.00
     Exponent=  1.1787000000D+03 Coefficients= -5.9492000000D-07
     Exponent=  2.6832000000D+02 Coefficients= -6.2748000000D-05
     Exponent=  7.5948000000D+01 Coefficients= -7.5773000000D-04
     Exponent=  2.4559000000D+01 Coefficients= -7.3308000000D-03
     Exponent=  8.6212000000D+00 Coefficients= -3.8932000000D-02
     Exponent=  3.1278000000D+00 Coefficients= -8.8908000000D-02
     Exponent=  8.2202000000D-01 Coefficients=  2.1689000000D-01
 S 1 1.00
     Exponent=  3.3017000000D-01 Coefficients=  1.0000000000D+00
 S 1 1.00
     Exponent=  1.1463000000D-01 Coefficients=  1.0000000000D+00
 P 4 1.00
     Exponent=  3.3775000000D+01 Coefficients=  6.0294000000D-03
     Exponent=  7.6766000000D+00 Coefficients=  4.3228000000D-02
     Exponent=  2.2357000000D+00 Coefficients=  1.6301000000D-01
     Exponent=  7.6447000000D-01 Coefficients=  3.6504000000D-01
 P 1 1.00
     Exponent=  2.6232000000D-01 Coefficients=  1.0000000000D+00
 P 1 1.00
     Exponent=  8.4638000000D-02 Coefficients=  1.0000000000D+00
 D 1 1.00
     Exponent=  1.4000000000D+00 Coefficients=  1.0000000000D+00
 D 1 1.00
     Exponent=  4.5000000000D-01 Coefficients=  1.0000000000D+00
 F 1 1.00
     Exponent=  9.5000000000D-01 Coefficients=  1.0000000000D+00
 ****
 Centers:       2
 S 7 1.00
     Exponent=  1.1101000000D+04 Coefficients=  5.4570000000D-04
     Exponent=  1.6653000000D+03 Coefficients=  4.2181000000D-03
     Exponent=  3.7908000000D+02 Coefficients=  2.1645000000D-02
     Exponent=  1.0730000000D+02 Coefficients=  8.3776000000D-02
     Exponent=  3.4747000000D+01 Coefficients=  2.3881000000D-01
     Exponent=  1.2249000000D+01 Coefficients=  4.3994000000D-01
     Exponent=  4.4743000000D+00 Coefficients=  3.6364000000D-01
 S 7 1.00
     Exponent=  1.6653000000D+03 Coefficients= -1.5006000000D-06
     Exponent=  3.7908000000D+02 Coefficients= -5.8753000000D-05
     Exponent=  1.0730000000D+02 Coefficients= -7.7453000000D-04
     Exponent=  3.4747000000D+01 Coefficients= -7.2161000000D-03
     Exponent=  1.2249000000D+01 Coefficients= -3.9338000000D-02
     Exponent=  4.4743000000D+00 Coefficients= -9.0611000000D-02
     Exponent=  1.2404000000D+00 Coefficients=  1.9882000000D-01
 S 1 1.00
     Exponent=  4.8743000000D-01 Coefficients=  1.0000000000D+00
 S 1 1.00
     Exponent=  1.6484000000D-01 Coefficients=  1.0000000000D+00
 P 4 1.00
     Exponent=  4.7934000000D+01 Coefficients=  6.1706000000D-03
     Exponent=  1.0999000000D+01 Coefficients=  4.4260000000D-02
     Exponent=  3.2472000000D+00 Coefficients=  1.6825000000D-01
     Exponent=  1.1114000000D+00 Coefficients=  3.6848000000D-01
 P 1 1.00
     Exponent=  3.7988000000D-01 Coefficients=  1.0000000000D+00
 P 1 1.00
     Exponent=  1.2068000000D-01 Coefficients=  1.0000000000D+00
 D 1 1.00
     Exponent=  1.8000000000D+00 Coefficients=  1.0000000000D+00
 D 1 1.00
     Exponent=  5.5000000000D-01 Coefficients=  1.0000000000D+00
 F 1 1.00
     Exponent=  1.0200000000D+00 Coefficients=  1.0000000000D+00
 ****
 Centers:       1
 S 7 1.00
     Exponent=  1.4782000000D+04 Coefficients=  5.3519000000D-04
     Exponent=  2.2173000000D+03 Coefficients=  4.1375000000D-03
     Exponent=  5.0474000000D+02 Coefficients=  2.1245000000D-02
     Exponent=  1.4287000000D+02 Coefficients=  8.2453000000D-02
     Exponent=  4.6300000000D+01 Coefficients=  2.3671000000D-01
     Exponent=  1.6337000000D+01 Coefficients=  4.4039000000D-01
     Exponent=  5.9828000000D+00 Coefficients=  3.6465000000D-01
 S 7 1.00
     Exponent=  2.2173000000D+03 Coefficients= -1.9275000000D-06
     Exponent=  5.0474000000D+02 Coefficients= -5.7964000000D-05
     Exponent=  1.4287000000D+02 Coefficients= -7.9494000000D-04
     Exponent=  4.6300000000D+01 Coefficients= -7.3125000000D-03
     Exponent=  1.6337000000D+01 Coefficients= -4.0574000000D-02
     Exponent=  5.9828000000D+00 Coefficients= -9.1594000000D-02
     Exponent=  1.6718000000D+00 Coefficients=  2.0940000000D-01
 S 1 1.00
     Exponent=  6.4662000000D-01 Coefficients=  1.0000000000D+00
 S 1 1.00
     Exponent=  2.1669000000D-01 Coefficients=  1.0000000000D+00
 P 4 1.00
     Exponent=  6.0424000000D+01 Coefficients=  6.8949000000D-03
     Exponent=  1.3935000000D+01 Coefficients=  4.9005000000D-02
     Exponent=  4.1531000000D+00 Coefficients=  1.8255000000D-01
     Exponent=  1.4158000000D+00 Coefficients=  3.7633000000D-01
 P 1 1.00
     Exponent=  4.7549000000D-01 Coefficients=  1.0000000000D+00
 P 1 1.00
     Exponent=  1.4529000000D-01 Coefficients=  1.0000000000D+00
 D 1 1.00
     Exponent=  2.2000000000D+00 Coefficients=  1.0000000000D+00
 D 1 1.00
     Exponent=  6.5000000000D-01 Coefficients=  1.0000000000D+00
 F 1 1.00
     Exponent=  1.1000000000D+00 Coefficients=  1.0000000000D+00
 ****
 Ernie: Thresh=  0.10000D-02 Tol=  0.10000D-05 Strict=F.
 Ernie:  7 primitive shells out of 220 were deleted.
 There are   223 symmetry adapted cartesian basis functions of A'  symmetry.
 There are    97 symmetry adapted cartesian basis functions of A"  symmetry.
 There are   190 symmetry adapted basis functions of A'  symmetry.
 There are    90 symmetry adapted basis functions of A"  symmetry.
   280 basis functions,   475 primitive gaussians,   320 cartesian basis functions
    25 alpha electrons       25 beta electrons
       nuclear repulsion energy       277.5236709615 Hartrees.
 IExCor= 4336 DFT=T Ex+Corr=M062X ExCW=0 ScaHFX=  0.540000
 ScaDFX=  1.000000  1.000000  1.000000  1.000000 ScalE2=  1.000000  1.000000
 IRadAn=      0 IRanWt=     -1 IRanGd=            0 ICorTp=0 IEmpDi=  4
 NAtoms=   12 NActive=   12 NUniq=   12 SFac= 1.00D+00 NAtFMM=   60 NAOKFM=F Big=F
 Integral buffers will be    131072 words long.
 Raffenetti 2 integral format.
 Two-electron integral symmetry is turned on.
 Leave Link  301 at Fri Aug 27 00:16:02 2021, MaxMem= 17179869184 cpu:         2.1
 (Enter /public3/home/sc51754/softwares/g09e01/l302.exe)
 NPDir=0 NMtPBC=     1 NCelOv=     1 NCel=       1 NClECP=     1 NCelD=      1
         NCelK=      1 NCelE2=     1 NClLst=     1 CellRange=     0.0.
 One-electron integrals computed using PRISM.
 NBasis=   280 RedAO= T EigKep=  2.16D-04  NBF=   190    90
 NBsUse=   280 1.00D-06 EigRej= -1.00D+00 NBFU=   190    90
 Precomputing XC quadrature grid using
 IXCGrd= 4 IRadAn=           0 IRanWt=          -1 IRanGd=           0 AccXCQ= 0.00D+00.
 Generated NRdTot=       0 NPtTot=           0 NUsed=           0 NTot=          32
 NSgBfM=   320   320   320   320   320 MxSgAt=    12 MxSgA2=    12.
 Leave Link  302 at Fri Aug 27 00:16:03 2021, MaxMem= 17179869184 cpu:        36.1
 (Enter /public3/home/sc51754/softwares/g09e01/l303.exe)
 DipDrv:  MaxL=1.
 Leave Link  303 at Fri Aug 27 00:16:03 2021, MaxMem= 17179869184 cpu:         9.1
 (Enter /public3/home/sc51754/softwares/g09e01/l401.exe)
 ExpMin= 7.41D-02 ExpMax= 1.48D+04 ExpMxC= 5.05D+02 IAcc=2 IRadAn=         4 AccDes= 0.00D+00
 Harris functional with IExCor= 1009 and IRadAn=       4 diagonalized for initial guess.
 HarFok:  IExCor= 1009 AccDes= 0.00D+00 IRadAn=         4 IDoV= 1 UseB2=F ITyADJ=14
 ICtDFT=  3500011 ScaDFX=  1.000000  1.000000  1.000000  1.000000
 FoFCou: FMM=F IPFlag=           0 FMFlag=      100000 FMFlg1=           0
         NFxFlg=           0 DoJE=T BraDBF=F KetDBF=T FulRan=T
         wScrn=  0.000000 ICntrl=     500 IOpCl=  0 I1Cent=   200000004 NGrid=           0
         NMat0=    1 NMatS0=      1 NMatT0=    0 NMatD0=    1 NMtDS0=    0 NMtDT0=    0
 Petite list used in FoFCou.
 Harris En= -323.373786825503    
 JPrj=0 DoOrth=F DoCkMO=F.
 Initial guess orbital symmetries:
       Occupied  (A') (A') (A') (A') (A') (A') (A') (A') (A') (A')
                 (A') (A') (A') (A') (A') (A') (A') (A') (A") (A')
                 (A') (A") (A") (A') (A")
       Virtual   (A") (A") (A') (A') (A") (A') (A') (A') (A') (A')
                 (A') (A') (A") (A') (A") (A") (A') (A') (A') (A')
                 (A') (A') (A") (A") (A') (A') (A') (A') (A') (A')
                 (A') (A") (A') (A") (A') (A') (A') (A') (A') (A')
                 (A') (A') (A") (A') (A') (A') (A') (A") (A") (A')
                 (A") (A") (A') (A') (A") (A') (A') (A") (A') (A')
                 (A') (A") (A') (A') (A") (A') (A") (A') (A") (A')
                 (A') (A") (A") (A') (A") (A') (A') (A") (A') (A')
                 (A") (A') (A') (A") (A') (A') (A") (A') (A") (A")
                 (A') (A') (A') (A') (A') (A") (A') (A') (A") (A')
                 (A') (A') (A") (A') (A') (A') (A') (A") (A') (A')
                 (A') (A") (A') (A') (A') (A') (A") (A') (A') (A')
                 (A") (A') (A") (A') (A") (A') (A") (A") (A') (A")
                 (A") (A') (A') (A') (A") (A') (A') (A") (A') (A')
                 (A') (A') (A') (A") (A") (A') (A") (A') (A') (A')
                 (A") (A') (A') (A") (A") (A') (A") (A') (A") (A')
                 (A") (A') (A') (A') (A") (A") (A') (A') (A") (A')
                 (A") (A') (A') (A") (A') (A') (A") (A') (A") (A")
                 (A") (A") (A') (A') (A") (A') (A") (A") (A') (A")
                 (A") (A') (A') (A") (A') (A') (A") (A') (A") (A")
                 (A') (A') (A") (A') (A') (A') (A") (A') (A') (A')
                 (A") (A') (A') (A") (A') (A") (A') (A') (A") (A")
                 (A') (A') (A") (A') (A') (A") (A') (A') (A') (A')
                 (A") (A') (A') (A') (A') (A") (A") (A') (A') (A')
                 (A') (A") (A') (A') (A') (A') (A') (A') (A') (A')
                 (A') (A') (A') (A') (A')
 The electronic state of the initial guess is 1-A'.
 Leave Link  401 at Fri Aug 27 00:16:04 2021, MaxMem= 17179869184 cpu:        43.2
 (Enter /public3/home/sc51754/softwares/g09e01/l502.exe)
 Closed shell SCF:
 Using DIIS extrapolation, IDIIS=  1040.
 Integral symmetry usage will be decided dynamically.
 Keep R1 ints in memory in symmetry-blocked form, NReq=1167802198.
 IVT=      348658 IEndB=      348658 NGot= 17179869184 MDV= 16785904737
 LenX= 16785904737 LenY= 16785801896
 Requested convergence on RMS density matrix=1.00D-08 within 128 cycles.
 Requested convergence on MAX density matrix=1.00D-06.
 Requested convergence on             energy=1.00D-06.
 No special actions if energy rises.
 FoFCou: FMM=F IPFlag=           0 FMFlag=           0 FMFlg1=           0
         NFxFlg=           0 DoJE=F BraDBF=F KetDBF=F FulRan=T
         wScrn=  0.000000 ICntrl=     600 IOpCl=  0 I1Cent=           0 NGrid=           0
         NMat0=    1 NMatS0=  39340 NMatT0=    0 NMatD0=    1 NMtDS0=    0 NMtDT0=    0
 Petite list used in FoFCou.
 Integral accuracy reduced to 1.0D-05 until final iterations.

 Cycle   1  Pass 0  IDiag  1:
 E= -323.353255250600    
 DIIS: error= 3.03D-02 at cycle   1 NSaved=   1.
 NSaved= 1 IEnMin= 1 EnMin= -323.353255250600     IErMin= 1 ErrMin= 3.03D-02
 ErrMax= 3.03D-02  0.00D+00 EMaxC= 1.00D-01 BMatC= 2.06D-01 BMatP= 2.06D-01
 IDIUse=3 WtCom= 6.97D-01 WtEn= 3.03D-01
 Coeff-Com:  0.100D+01
 Coeff-En:   0.100D+01
 Coeff:      0.100D+01
 Gap=     0.290 Goal=   None    Shift=    0.000
 GapD=    0.290 DampG=1.000 DampE=0.500 DampFc=0.5000 IDamp=-1.
 Damping current iteration by 5.00D-01
 RMSDP=2.21D-03 MaxDP=1.18D-01              OVMax= 1.73D-01

 Cycle   2  Pass 0  IDiag  1:
 E= -323.441410502194     Delta-E=       -0.088155251594 Rises=F Damp=T
 DIIS: error= 7.97D-03 at cycle   2 NSaved=   2.
 NSaved= 2 IEnMin= 2 EnMin= -323.441410502194     IErMin= 2 ErrMin= 7.97D-03
 ErrMax= 7.97D-03  0.00D+00 EMaxC= 1.00D-01 BMatC= 1.57D-02 BMatP= 2.06D-01
 IDIUse=3 WtCom= 9.20D-01 WtEn= 7.97D-02
 Coeff-Com: -0.130D+00 0.113D+01
 Coeff-En:   0.000D+00 0.100D+01
 Coeff:     -0.120D+00 0.112D+01
 Gap=     0.305 Goal=   None    Shift=    0.000
 RMSDP=5.37D-04 MaxDP=3.00D-02 DE=-8.82D-02 OVMax= 9.35D-02

 Cycle   3  Pass 0  IDiag  1:
 E= -323.521745331326     Delta-E=       -0.080334829133 Rises=F Damp=F
 DIIS: error= 2.97D-03 at cycle   3 NSaved=   3.
 NSaved= 3 IEnMin= 3 EnMin= -323.521745331326     IErMin= 3 ErrMin= 2.97D-03
 ErrMax= 2.97D-03  0.00D+00 EMaxC= 1.00D-01 BMatC= 2.85D-03 BMatP= 1.57D-02
 IDIUse=3 WtCom= 9.70D-01 WtEn= 2.97D-02
 Coeff-Com: -0.853D-01 0.318D+00 0.767D+00
 Coeff-En:   0.000D+00 0.000D+00 0.100D+01
 Coeff:     -0.827D-01 0.309D+00 0.774D+00
 Gap=     0.300 Goal=   None    Shift=    0.000
 RMSDP=2.02D-04 MaxDP=1.37D-02 DE=-8.03D-02 OVMax= 2.67D-02

 Cycle   4  Pass 0  IDiag  1:
 E= -323.523467911110     Delta-E=       -0.001722579784 Rises=F Damp=F
 DIIS: error= 2.60D-03 at cycle   4 NSaved=   4.
 NSaved= 4 IEnMin= 4 EnMin= -323.523467911110     IErMin= 4 ErrMin= 2.60D-03
 ErrMax= 2.60D-03  0.00D+00 EMaxC= 1.00D-01 BMatC= 8.98D-04 BMatP= 2.85D-03
 IDIUse=3 WtCom= 9.74D-01 WtEn= 2.60D-02
 Coeff-Com: -0.323D-01 0.826D-01 0.404D+00 0.546D+00
 Coeff-En:   0.000D+00 0.000D+00 0.237D+00 0.763D+00
 Coeff:     -0.315D-01 0.805D-01 0.399D+00 0.552D+00
 Gap=     0.299 Goal=   None    Shift=    0.000
 RMSDP=9.00D-05 MaxDP=3.63D-03 DE=-1.72D-03 OVMax= 1.30D-02

 Cycle   5  Pass 0  IDiag  1:
 E= -323.524329436316     Delta-E=       -0.000861525205 Rises=F Damp=F
 DIIS: error= 4.53D-04 at cycle   5 NSaved=   5.
 NSaved= 5 IEnMin= 5 EnMin= -323.524329436316     IErMin= 5 ErrMin= 4.53D-04
 ErrMax= 4.53D-04  0.00D+00 EMaxC= 1.00D-01 BMatC= 3.90D-05 BMatP= 8.98D-04
 IDIUse=3 WtCom= 9.95D-01 WtEn= 4.53D-03
 Coeff-Com: -0.588D-02 0.855D-02 0.106D+00 0.234D+00 0.657D+00
 Coeff-En:   0.000D+00 0.000D+00 0.000D+00 0.000D+00 0.100D+01
 Coeff:     -0.585D-02 0.851D-02 0.105D+00 0.233D+00 0.659D+00
 Gap=     0.299 Goal=   None    Shift=    0.000
 RMSDP=1.76D-05 MaxDP=1.01D-03 DE=-8.62D-04 OVMax= 2.28D-03

 Cycle   6  Pass 0  IDiag  1:
 E= -323.524363018483     Delta-E=       -0.000033582168 Rises=F Damp=F
 DIIS: error= 1.01D-04 at cycle   6 NSaved=   6.
 NSaved= 6 IEnMin= 6 EnMin= -323.524363018483     IErMin= 6 ErrMin= 1.01D-04
 ErrMax= 1.01D-04  0.00D+00 EMaxC= 1.00D-01 BMatC= 2.73D-06 BMatP= 3.90D-05
 IDIUse=3 WtCom= 9.99D-01 WtEn= 1.01D-03
 Coeff-Com: -0.126D-02 0.389D-03 0.310D-01 0.826D-01 0.300D+00 0.587D+00
 Coeff-En:   0.000D+00 0.000D+00 0.000D+00 0.000D+00 0.000D+00 0.100D+01
 Coeff:     -0.126D-02 0.388D-03 0.310D-01 0.825D-01 0.300D+00 0.587D+00
 Gap=     0.299 Goal=   None    Shift=    0.000
 RMSDP=4.66D-06 MaxDP=2.31D-04 DE=-3.36D-05 OVMax= 4.91D-04

 Initial convergence to 1.0D-05 achieved.  Increase integral accuracy.
 Cycle   7  Pass 1  IDiag  1:
 E= -323.524421168012     Delta-E=       -0.000058149529 Rises=F Damp=F
 DIIS: error= 1.94D-04 at cycle   1 NSaved=   1.
 NSaved= 1 IEnMin= 1 EnMin= -323.524421168012     IErMin= 1 ErrMin= 1.94D-04
 ErrMax= 1.94D-04  0.00D+00 EMaxC= 1.00D-01 BMatC= 1.95D-05 BMatP= 1.95D-05
 IDIUse=3 WtCom= 9.98D-01 WtEn= 1.94D-03
 Coeff-Com:  0.100D+01
 Coeff-En:   0.100D+01
 Coeff:      0.100D+01
 Gap=     0.299 Goal=   None    Shift=    0.000
 RMSDP=4.66D-06 MaxDP=2.31D-04 DE=-5.81D-05 OVMax= 4.82D-04

 Cycle   8  Pass 1  IDiag  1:
 E= -323.524430136804     Delta-E=       -0.000008968792 Rises=F Damp=F
 DIIS: error= 4.20D-05 at cycle   2 NSaved=   2.
 NSaved= 2 IEnMin= 2 EnMin= -323.524430136804     IErMin= 2 ErrMin= 4.20D-05
 ErrMax= 4.20D-05  0.00D+00 EMaxC= 1.00D-01 BMatC= 4.30D-07 BMatP= 1.95D-05
 IDIUse=1 WtCom= 1.00D+00 WtEn= 0.00D+00
 Coeff-Com: -0.226D-02 0.100D+01
 Coeff:     -0.226D-02 0.100D+01
 Gap=     0.299 Goal=   None    Shift=    0.000
 RMSDP=4.25D-06 MaxDP=1.66D-04 DE=-8.97D-06 OVMax= 5.46D-04

 Cycle   9  Pass 1  IDiag  1:
 E= -323.524429957682     Delta-E=        0.000000179122 Rises=F Damp=F
 DIIS: error= 5.14D-05 at cycle   3 NSaved=   3.
 NSaved= 3 IEnMin= 2 EnMin= -323.524430136804     IErMin= 2 ErrMin= 4.20D-05
 ErrMax= 5.14D-05  0.00D+00 EMaxC= 1.00D-01 BMatC= 7.26D-07 BMatP= 4.30D-07
 IDIUse=1 WtCom= 1.00D+00 WtEn= 0.00D+00
 Coeff-Com: -0.244D-01 0.583D+00 0.441D+00
 Coeff:     -0.244D-01 0.583D+00 0.441D+00
 Gap=     0.299 Goal=   None    Shift=    0.000
 RMSDP=2.00D-06 MaxDP=9.78D-05 DE= 1.79D-07 OVMax= 2.67D-04

 Cycle  10  Pass 1  IDiag  1:
 E= -323.524430565392     Delta-E=       -0.000000607710 Rises=F Damp=F
 DIIS: error= 3.53D-06 at cycle   4 NSaved=   4.
 NSaved= 4 IEnMin= 4 EnMin= -323.524430565392     IErMin= 4 ErrMin= 3.53D-06
 ErrMax= 3.53D-06  0.00D+00 EMaxC= 1.00D-01 BMatC= 3.89D-09 BMatP= 4.30D-07
 IDIUse=1 WtCom= 1.00D+00 WtEn= 0.00D+00
 Coeff-Com: -0.447D-02 0.499D-01 0.533D-01 0.901D+00
 Coeff:     -0.447D-02 0.499D-01 0.533D-01 0.901D+00
 Gap=     0.299 Goal=   None    Shift=    0.000
 RMSDP=3.44D-07 MaxDP=1.85D-05 DE=-6.08D-07 OVMax= 3.52D-05

 Cycle  11  Pass 1  IDiag  1:
 E= -323.524430568371     Delta-E=       -0.000000002979 Rises=F Damp=F
 DIIS: error= 3.15D-06 at cycle   5 NSaved=   5.
 NSaved= 5 IEnMin= 5 EnMin= -323.524430568371     IErMin= 5 ErrMin= 3.15D-06
 ErrMax= 3.15D-06  0.00D+00 EMaxC= 1.00D-01 BMatC= 2.08D-09 BMatP= 3.89D-09
 IDIUse=1 WtCom= 1.00D+00 WtEn= 0.00D+00
 Coeff-Com:  0.715D-03-0.409D-01-0.303D-01 0.438D+00 0.633D+00
 Coeff:      0.715D-03-0.409D-01-0.303D-01 0.438D+00 0.633D+00
 Gap=     0.299 Goal=   None    Shift=    0.000
 RMSDP=1.62D-07 MaxDP=6.29D-06 DE=-2.98D-09 OVMax= 3.56D-05

 Cycle  12  Pass 1  IDiag  1:
 E= -323.524430570829     Delta-E=       -0.000000002458 Rises=F Damp=F
 DIIS: error= 1.20D-06 at cycle   6 NSaved=   6.
 NSaved= 6 IEnMin= 6 EnMin= -323.524430570829     IErMin= 6 ErrMin= 1.20D-06
 ErrMax= 1.20D-06  0.00D+00 EMaxC= 1.00D-01 BMatC= 1.71D-10 BMatP= 2.08D-09
 IDIUse=1 WtCom= 1.00D+00 WtEn= 0.00D+00
 Coeff-Com:  0.676D-03-0.179D-01-0.179D-01 0.354D-01 0.240D+00 0.760D+00
 Coeff:      0.676D-03-0.179D-01-0.179D-01 0.354D-01 0.240D+00 0.760D+00
 Gap=     0.299 Goal=   None    Shift=    0.000
 RMSDP=5.39D-08 MaxDP=1.79D-06 DE=-2.46D-09 OVMax= 7.87D-06

 Cycle  13  Pass 1  IDiag  1:
 E= -323.524430571027     Delta-E=       -0.000000000198 Rises=F Damp=F
 DIIS: error= 2.54D-07 at cycle   7 NSaved=   7.
 NSaved= 7 IEnMin= 7 EnMin= -323.524430571027     IErMin= 7 ErrMin= 2.54D-07
 ErrMax= 2.54D-07  0.00D+00 EMaxC= 1.00D-01 BMatC= 2.70D-11 BMatP= 1.71D-10
 IDIUse=1 WtCom= 1.00D+00 WtEn= 0.00D+00
 Coeff-Com:  0.237D-03-0.257D-02-0.534D-02-0.513D-01 0.405D-01 0.349D+00
 Coeff-Com:  0.670D+00
 Coeff:      0.237D-03-0.257D-02-0.534D-02-0.513D-01 0.405D-01 0.349D+00
 Coeff:      0.670D+00
 Gap=     0.299 Goal=   None    Shift=    0.000
 RMSDP=1.98D-08 MaxDP=9.02D-07 DE=-1.98D-10 OVMax= 2.91D-06

 Cycle  14  Pass 1  IDiag  1:
 E= -323.524430571054     Delta-E=       -0.000000000027 Rises=F Damp=F
 DIIS: error= 1.66D-07 at cycle   8 NSaved=   8.
 NSaved= 8 IEnMin= 8 EnMin= -323.524430571054     IErMin= 8 ErrMin= 1.66D-07
 ErrMax= 1.66D-07  0.00D+00 EMaxC= 1.00D-01 BMatC= 2.20D-12 BMatP= 2.70D-11
 IDIUse=1 WtCom= 1.00D+00 WtEn= 0.00D+00
 Coeff-Com: -0.228D-04 0.201D-02 0.696D-03-0.230D-01-0.208D-01-0.171D-01
 Coeff-Com:  0.216D+00 0.842D+00
 Coeff:     -0.228D-04 0.201D-02 0.696D-03-0.230D-01-0.208D-01-0.171D-01
 Coeff:      0.216D+00 0.842D+00
 Gap=     0.299 Goal=   None    Shift=    0.000
 RMSDP=8.07D-09 MaxDP=3.43D-07 DE=-2.71D-11 OVMax= 1.22D-06

 SCF Done:  E(RM062X) =  -323.524430571     A.U. after   14 cycles
            NFock= 14  Conv=0.81D-08     -V/T= 2.0038
 KE= 3.223072786037D+02 PE=-1.309734398570D+03 EE= 3.863790184333D+02
 Leave Link  502 at Fri Aug 27 00:16:11 2021, MaxMem= 17179869184 cpu:       248.3
 (Enter /public3/home/sc51754/softwares/g09e01/l601.exe)
 Copying SCF densities to generalized density rwf, IOpCl= 0 IROHF=0.

 **********************************************************************

            Population analysis using the SCF density.

 **********************************************************************

 Orbital symmetries:
       Occupied  (A') (A') (A') (A') (A') (A') (A') (A') (A') (A')
                 (A') (A') (A') (A') (A') (A') (A") (A') (A') (A')
                 (A') (A") (A") (A') (A")
       Virtual   (A") (A") (A') (A') (A') (A') (A') (A') (A") (A')
                 (A") (A') (A') (A') (A") (A") (A') (A') (A') (A")
                 (A') (A') (A") (A') (A') (A') (A') (A') (A') (A')
                 (A') (A") (A') (A') (A") (A') (A') (A') (A') (A')
                 (A') (A') (A') (A") (A') (A') (A') (A") (A") (A")
                 (A') (A") (A') (A') (A") (A') (A") (A') (A') (A')
                 (A') (A') (A") (A') (A') (A') (A") (A") (A') (A')
                 (A") (A") (A") (A') (A") (A') (A') (A') (A") (A')
                 (A') (A") (A') (A') (A') (A") (A") (A') (A") (A')
                 (A") (A') (A') (A') (A') (A") (A') (A') (A') (A")
                 (A') (A') (A") (A') (A') (A') (A") (A') (A') (A')
                 (A') (A") (A') (A') (A') (A') (A") (A') (A') (A')
                 (A") (A') (A") (A') (A") (A') (A") (A") (A') (A")
                 (A") (A') (A') (A") (A') (A') (A') (A") (A') (A')
                 (A') (A') (A') (A") (A") (A') (A") (A') (A') (A')
                 (A") (A') (A') (A") (A") (A') (A") (A') (A") (A")
                 (A') (A') (A') (A') (A") (A") (A') (A') (A") (A')
                 (A") (A') (A') (A') (A") (A") (A') (A") (A') (A")
                 (A") (A") (A') (A') (A") (A") (A') (A") (A') (A")
                 (A") (A') (A') (A") (A') (A') (A") (A') (A") (A")
                 (A') (A') (A") (A') (A') (A') (A") (A') (A') (A')
                 (A') (A") (A") (A') (A') (A') (A") (A') (A") (A')
                 (A") (A') (A") (A') (A') (A') (A") (A') (A') (A')
                 (A") (A') (A') (A') (A') (A") (A') (A') (A') (A")
                 (A') (A') (A") (A') (A') (A') (A') (A') (A') (A')
                 (A') (A') (A') (A') (A')
 The electronic state is 1-A'.
 Alpha  occ. eigenvalues --  -19.65779 -14.74963 -10.63828 -10.58196 -10.56395
 Alpha  occ. eigenvalues --  -10.54937 -10.54488  -1.20969  -1.05839  -0.91581
 Alpha  occ. eigenvalues --   -0.86081  -0.74045  -0.72044  -0.63812  -0.59901
 Alpha  occ. eigenvalues --   -0.56052  -0.52682  -0.51948  -0.49315  -0.47109
 Alpha  occ. eigenvalues --   -0.44033  -0.43664  -0.35494  -0.34495  -0.29940
 Alpha virt. eigenvalues --   -0.00006   0.02701   0.04430   0.05385   0.06154
 Alpha virt. eigenvalues --    0.08088   0.09602   0.16783   0.17732   0.18540
 Alpha virt. eigenvalues --    0.19178   0.19411   0.21522   0.22187   0.23372
 Alpha virt. eigenvalues --    0.23731   0.25214   0.28523   0.29305   0.30260
 Alpha virt. eigenvalues --    0.31015   0.32376   0.33072   0.33124   0.35907
 Alpha virt. eigenvalues --    0.37031   0.39878   0.40487   0.41430   0.42414
 Alpha virt. eigenvalues --    0.43215   0.46004   0.48054   0.48224   0.48536
 Alpha virt. eigenvalues --    0.53000   0.54735   0.55429   0.58201   0.60594
 Alpha virt. eigenvalues --    0.65495   0.67082   0.68572   0.68862   0.70464
 Alpha virt. eigenvalues --    0.71787   0.75688   0.80849   0.82037   0.85832
 Alpha virt. eigenvalues --    0.87921   0.91059   0.92170   0.95553   0.97194
 Alpha virt. eigenvalues --    0.99636   1.01667   1.01720   1.03101   1.04929
 Alpha virt. eigenvalues --    1.07911   1.12852   1.14860   1.15056   1.18558
 Alpha virt. eigenvalues --    1.19524   1.19597   1.22928   1.23028   1.24508
 Alpha virt. eigenvalues --    1.27375   1.31864   1.34588   1.34691   1.35449
 Alpha virt. eigenvalues --    1.35799   1.41365   1.46180   1.46275   1.48448
 Alpha virt. eigenvalues --    1.53444   1.54902   1.55217   1.58056   1.58548
 Alpha virt. eigenvalues --    1.59670   1.62298   1.64839   1.66611   1.70217
 Alpha virt. eigenvalues --    1.70255   1.71140   1.75178   1.76893   1.78318
 Alpha virt. eigenvalues --    1.83434   1.84587   1.86957   1.90232   1.90272
 Alpha virt. eigenvalues --    1.92894   1.99433   2.01252   2.01690   2.05684
 Alpha virt. eigenvalues --    2.11111   2.15221   2.15803   2.19309   2.22801
 Alpha virt. eigenvalues --    2.26651   2.28044   2.29465   2.31447   2.34458
 Alpha virt. eigenvalues --    2.39199   2.46136   2.63122   2.72044   2.78064
 Alpha virt. eigenvalues --    2.88368   2.98411   2.98952   3.05070   3.16052
 Alpha virt. eigenvalues --    3.19336   3.21645   3.26743   3.27748   3.29150
 Alpha virt. eigenvalues --    3.33314   3.34705   3.37724   3.40827   3.40993
 Alpha virt. eigenvalues --    3.44848   3.48581   3.48670   3.50848   3.57290
 Alpha virt. eigenvalues --    3.58572   3.60996   3.62273   3.62997   3.70007
 Alpha virt. eigenvalues --    3.71832   3.74664   3.78207   3.81727   3.82540
 Alpha virt. eigenvalues --    3.85008   3.86834   3.90988   3.92584   3.94464
 Alpha virt. eigenvalues --    3.97616   3.98083   4.02122   4.03442   4.04772
 Alpha virt. eigenvalues --    4.07130   4.07587   4.11613   4.14318   4.14920
 Alpha virt. eigenvalues --    4.17270   4.19007   4.19492   4.20185   4.22470
 Alpha virt. eigenvalues --    4.25409   4.26485   4.27717   4.30249   4.30569
 Alpha virt. eigenvalues --    4.31125   4.31184   4.36747   4.36914   4.38678
 Alpha virt. eigenvalues --    4.41235   4.42096   4.42400   4.44320   4.45599
 Alpha virt. eigenvalues --    4.46622   4.48476   4.48489   4.52674   4.54000
 Alpha virt. eigenvalues --    4.55475   4.57057   4.60218   4.62269   4.64732
 Alpha virt. eigenvalues --    4.69856   4.72747   4.76149   4.80095   4.83906
 Alpha virt. eigenvalues --    4.85148   4.86405   4.94245   4.95626   5.00193
 Alpha virt. eigenvalues --    5.02835   5.06526   5.08076   5.14044   5.15051
 Alpha virt. eigenvalues --    5.17962   5.19298   5.23871   5.26845   5.27998
 Alpha virt. eigenvalues --    5.30565   5.31787   5.35374   5.36280   5.37420
 Alpha virt. eigenvalues --    5.39254   5.40607   5.49149   5.51189   5.54831
 Alpha virt. eigenvalues --    5.59610   5.60115   5.62790   5.71397   5.74821
 Alpha virt. eigenvalues --    5.76777   5.92609   5.97619   6.00827   6.02020
 Alpha virt. eigenvalues --    6.07413   6.16952   6.20979   6.22581   6.25815
 Alpha virt. eigenvalues --    6.38122   6.42953   6.47964   6.55309   6.65951
 Alpha virt. eigenvalues --    6.89252   7.03368   7.29142   9.13739  11.94393
 Alpha virt. eigenvalues --   12.56981  15.35612  17.27421  18.52277  22.11048
          Condensed to atoms (all electrons):
               1          2          3          4          5          6
     1  O    7.917382  -0.097410   0.287431  -0.054236   0.004225   0.007582
     2  N   -0.097410   6.671912   0.488966  -0.014264   0.526086  -0.037082
     3  C    0.287431   0.488966   4.353308   0.525739  -0.085812  -0.063088
     4  C   -0.054236  -0.014264   0.525739   4.849765  -0.048839   0.534674
     5  C    0.004225   0.526086  -0.085812  -0.048839   4.509694  -0.081705
     6  C    0.007582  -0.037082  -0.063088   0.534674  -0.081705   4.651228
     7  C   -0.000677  -0.034326  -0.058656  -0.043422   0.531771   0.503700
     8  H    0.357622   0.012843  -0.033843   0.010704   0.002056  -0.002030
     9  H    0.004995   0.007064  -0.028019   0.433200  -0.002424  -0.034507
    10  H   -0.000336  -0.042092   0.005320  -0.005172   0.450720   0.008543
    11  H   -0.000338  -0.002454   0.007558  -0.037491   0.007217   0.440245
    12  H    0.000038   0.007699  -0.001378   0.007784  -0.029016  -0.035372
               7          8          9         10         11         12
     1  O   -0.000677   0.357622   0.004995  -0.000336  -0.000338   0.000038
     2  N   -0.034326   0.012843   0.007064  -0.042092  -0.002454   0.007699
     3  C   -0.058656  -0.033843  -0.028019   0.005320   0.007558  -0.001378
     4  C   -0.043422   0.010704   0.433200  -0.005172  -0.037491   0.007784
     5  C    0.531771   0.002056  -0.002424   0.450720   0.007217  -0.029016
     6  C    0.503700  -0.002030  -0.034507   0.008543   0.440245  -0.035372
     7  C    4.943444   0.001035   0.007650  -0.077012  -0.040846   0.436488
     8  H    0.001035   0.438185  -0.000633  -0.000499   0.000080  -0.000038
     9  H    0.007650  -0.000633   0.596308   0.000156  -0.008611   0.000041
    10  H   -0.077012  -0.000499   0.000156   0.635521  -0.000134  -0.005520
    11  H   -0.040846   0.000080  -0.008611  -0.000134   0.611943  -0.008132
    12  H    0.436488  -0.000038   0.000041  -0.005520  -0.008132   0.613678
 Mulliken charges:
               1
     1  O   -0.426277
     2  N   -0.486942
     3  C    0.602474
     4  C   -0.158441
     5  C    0.216028
     6  C    0.107813
     7  C   -0.169149
     8  H    0.214519
     9  H    0.024779
    10  H    0.030506
    11  H    0.030962
    12  H    0.013729
 Sum of Mulliken charges =  -0.00000
 Mulliken charges with hydrogens summed into heavy atoms:
               1
     1  O   -0.211759
     2  N   -0.486942
     3  C    0.602474
     4  C   -0.133662
     5  C    0.246534
     6  C    0.138775
     7  C   -0.155420
 Electronic spatial extent (au):  <R**2>=            623.7878
 Charge=             -0.0000 electrons
 Dipole moment (field-independent basis, Debye):
    X=              0.4840    Y=             -1.2657    Z=             -0.0000  Tot=              1.3551
 Quadrupole moment (field-independent basis, Debye-Ang):
   XX=            -37.7760   YY=            -36.8042   ZZ=            -43.2336
   XY=             -2.0446   XZ=              0.0000   YZ=              0.0000
 Traceless Quadrupole moment (field-independent basis, Debye-Ang):
   XX=              1.4953   YY=              2.4671   ZZ=             -3.9623
   XY=             -2.0446   XZ=              0.0000   YZ=              0.0000
 Octapole moment (field-independent basis, Debye-Ang**2):
  XXX=              6.3215  YYY=              3.9888  ZZZ=              0.0000  XYY=            -10.9618
  XXY=              0.4292  XXZ=              0.0000  XZZ=             -1.4152  YZZ=              5.5195
  YYZ=             -0.0000  XYZ=              0.0000
 Hexadecapole moment (field-independent basis, Debye-Ang**3):
 XXXX=           -265.2209 YYYY=           -456.0837 ZZZZ=            -46.8270 XXXY=              8.8969
 XXXZ=              0.0000 YYYX=            -30.0644 YYYZ=              0.0000 ZZZX=              0.0000
 ZZZY=              0.0000 XXYY=           -108.8560 XXZZ=            -59.5140 YYZZ=            -97.0835
 XXYZ=              0.0000 YYXZ=              0.0000 ZZXY=              0.7305
 N-N= 2.775236709615D+02 E-N=-1.309734397283D+03  KE= 3.223072786037D+02
 Symmetry A'   KE= 3.107524351432D+02
 Symmetry A"   KE= 1.155484346052D+01
 No NMR shielding tensors so no spin-rotation constants.
 Leave Link  601 at Fri Aug 27 00:16:13 2021, MaxMem= 17179869184 cpu:        72.7
 (Enter /public3/home/sc51754/softwares/g09e01/l701.exe)
 Compute integral first derivatives.
 ... and contract with generalized density number  0.
 Leave Link  701 at Fri Aug 27 00:16:14 2021, MaxMem= 17179869184 cpu:        46.7
 (Enter /public3/home/sc51754/softwares/g09e01/l702.exe)
 L702 exits ... SP integral derivatives will be done elsewhere.
 Leave Link  702 at Fri Aug 27 00:16:14 2021, MaxMem= 17179869184 cpu:         0.2
 (Enter /public3/home/sc51754/softwares/g09e01/l703.exe)
 Compute integral first derivatives, UseDBF=F ICtDFT=           0.
 Integral derivatives from FoFJK, PRISM(SPDF).
 Calling FoFJK, ICntrl=      2127 FMM=F ISym2X=1 I1Cent= 0 IOpClX= 0 NMat=1 NMatS=1 NMatT=0.
 FoFJK:  IHMeth= 1 ICntrl=    2127 DoSepK=F KAlg= 0 I1Cent=   0 FoldK=F
 IRaf=         0 NMat=   1 IRICut=       1 DoRegI=T DoRafI=F ISym2E= 1.
 FoFCou: FMM=F IPFlag=           0 FMFlag=      100000 FMFlg1=         800
         NFxFlg=           0 DoJE=F BraDBF=F KetDBF=F FulRan=T
         wScrn=  0.000000 ICntrl=    2127 IOpCl=  0 I1Cent=           0 NGrid=           0
         NMat0=    1 NMatS0=      1 NMatT0=    0 NMatD0=    1 NMtDS0=    0 NMtDT0=    0
 Petite list used in FoFCou.
 Leave Link  703 at Fri Aug 27 00:16:16 2021, MaxMem= 17179869184 cpu:       152.1
 (Enter /public3/home/sc51754/softwares/g09e01/l716.exe)
 Dipole        = 1.90418796D-01-4.97956628D-01-1.92881844D-32
 ***** Axes restored to original set *****
 -------------------------------------------------------------------
 Center     Atomic                   Forces (Hartrees/Bohr)
 Number     Number              X              Y              Z
 -------------------------------------------------------------------
      1        8           0.000248963    0.003856691   -0.000000000
      2        7          -0.001924158    0.002005028   -0.000000000
      3        6           0.000450945   -0.002656894    0.000000000
      4        6           0.003253985    0.001518802    0.000000000
      5        6          -0.003505794   -0.002241355   -0.000000000
      6        6           0.002740140   -0.002315945    0.000000000
      7        6           0.000218669   -0.003222106    0.000000000
      8        1          -0.001239774    0.001536361   -0.000000000
      9        1          -0.000695003   -0.000121909   -0.000000000
     10        1           0.000745164    0.000866163   -0.000000000
     11        1          -0.000230444    0.000265016   -0.000000000
     12        1          -0.000062693    0.000510148   -0.000000000
 -------------------------------------------------------------------
 Cartesian Forces:  Max     0.003856691 RMS     0.001576922
 Leave Link  716 at Fri Aug 27 00:16:16 2021, MaxMem= 17179869184 cpu:         0.4
 (Enter /public3/home/sc51754/softwares/g09e01/l103.exe)

 GradGradGradGradGradGradGradGradGradGradGradGradGradGradGradGradGradGrad
 Berny optimization.
 FormGI is forming the generalized inverse of G from B-inverse, IUseBI=4.
 Internal  Forces:  Max     0.005376759 RMS     0.001322555
 Search for a local minimum.
 Step number   1 out of a maximum of   61
 All quantities printed in internal units (Hartrees-Bohrs-Radians)
 RMS Force = .13226D-02 SwitMx=.10000D-02 MixMth= 1
 Mixed Optimization -- RFO/linear search
 Second derivative matrix not updated -- first step.
 ITU=  0
     Eigenvalues ---    0.02265   0.02291   0.02312   0.02345   0.02366
     Eigenvalues ---    0.02409   0.02454   0.02466   0.02614   0.16000
     Eigenvalues ---    0.16000   0.16000   0.16000   0.16000   0.22000
     Eigenvalues ---    0.22422   0.24442   0.25000   0.35406   0.35728
     Eigenvalues ---    0.35970   0.35990   0.43621   0.45785   0.48169
     Eigenvalues ---    0.49389   0.54882   0.56881   0.57480   0.60970
 RFO step:  Lambda=-1.90621391D-04 EMin= 2.26525640D-02
 Linear search not attempted -- first point.
 Iteration  1 RMS(Cart)=  0.00550506 RMS(Int)=  0.00001498
 Iteration  2 RMS(Cart)=  0.00001214 RMS(Int)=  0.00000022
 Iteration  3 RMS(Cart)=  0.00000000 RMS(Int)=  0.00000022
 ITry= 1 IFail=0 DXMaxC= 2.98D-02 DCOld= 1.00D+10 DXMaxT= 3.00D-01 DXLimC= 3.00D+00 Rises=F
 ClnCor:  largest displacement from symmetrization is 3.70D-13 for atom    11.
 Variable       Old X    -DE/DX   Delta X   Delta X   Delta X     New X
                                 (Linear)    (Quad)   (Total)
    R1        2.53498   0.00538   0.00000   0.00945   0.00945   2.54443
    R2        1.81937   0.00165   0.00000   0.00300   0.00300   1.82237
    R3        2.48913   0.00213   0.00000   0.00339   0.00339   2.49252
    R4        2.51605   0.00293   0.00000   0.00498   0.00498   2.52103
    R5        2.63173   0.00306   0.00000   0.00649   0.00649   2.63821
    R6        2.59740   0.00321   0.00000   0.00638   0.00638   2.60378
    R7        2.04128  -0.00066   0.00000  -0.00182  -0.00182   2.03946
    R8        2.60360   0.00314   0.00000   0.00638   0.00638   2.60998
    R9        2.05020  -0.00105   0.00000  -0.00295  -0.00295   2.04725
   R10        2.62604   0.00283   0.00000   0.00597   0.00597   2.63201
   R11        2.04509  -0.00033   0.00000  -0.00093  -0.00093   2.04416
   R12        2.04097  -0.00051   0.00000  -0.00140  -0.00140   2.03956
    A1        1.85547   0.00200   0.00000   0.01250   0.01250   1.86797
    A2        2.05525   0.00019   0.00000   0.00080   0.00080   2.05605
    A3        2.05194  -0.00033   0.00000  -0.00128  -0.00128   2.05065
    A4        2.06888   0.00038   0.00000   0.00157   0.00157   2.07045
    A5        2.16236  -0.00005   0.00000  -0.00029  -0.00029   2.16208
    A6        2.04920   0.00014   0.00000   0.00050   0.00050   2.04970
    A7        2.09344  -0.00035   0.00000  -0.00201  -0.00201   2.09143
    A8        2.14055   0.00021   0.00000   0.00151   0.00151   2.14206
    A9        2.15386  -0.00009   0.00000  -0.00029  -0.00029   2.15357
   A10        2.02490  -0.00040   0.00000  -0.00266  -0.00266   2.02224
   A11        2.10443   0.00050   0.00000   0.00295   0.00295   2.10738
   A12        2.08852  -0.00021   0.00000  -0.00100  -0.00100   2.08752
   A13        2.09426  -0.00002   0.00000  -0.00032  -0.00032   2.09395
   A14        2.10040   0.00024   0.00000   0.00132   0.00132   2.10171
   A15        2.05718   0.00004   0.00000   0.00028   0.00028   2.05745
   A16        2.10510  -0.00009   0.00000  -0.00058  -0.00058   2.10453
   A17        2.12091   0.00005   0.00000   0.00030   0.00030   2.12121
    D1        0.00000   0.00000   0.00000   0.00000   0.00000   0.00000
    D2        3.14159   0.00000   0.00000   0.00000   0.00000   3.14159
    D3        3.14159  -0.00000   0.00000  -0.00000   0.00000   3.14159
    D4        0.00000   0.00000   0.00000   0.00000  -0.00000   0.00000
    D5       -0.00000  -0.00000   0.00000  -0.00000   0.00000   0.00000
    D6        3.14159   0.00000   0.00000  -0.00000   0.00000   3.14159
    D7        3.14159   0.00000   0.00000   0.00000   0.00000   3.14159
    D8        0.00000   0.00000   0.00000   0.00000   0.00000   0.00000
    D9       -0.00000  -0.00000   0.00000  -0.00000   0.00000   0.00000
   D10        3.14159  -0.00000   0.00000  -0.00000   0.00000   3.14159
   D11        0.00000   0.00000   0.00000   0.00000   0.00000   0.00000
   D12        3.14159  -0.00000   0.00000  -0.00000   0.00000   3.14159
   D13        3.14159   0.00000   0.00000   0.00000   0.00000   3.14159
   D14       -0.00000   0.00000   0.00000  -0.00000   0.00000   0.00000
   D15       -0.00000  -0.00000   0.00000  -0.00000   0.00000   0.00000
   D16        3.14159  -0.00000   0.00000  -0.00000   0.00000   3.14159
   D17        3.14159   0.00000   0.00000  -0.00000   0.00000   3.14159
   D18       -0.00000   0.00000   0.00000  -0.00000   0.00000   0.00000
   D19        0.00000  -0.00000   0.00000   0.00000   0.00000   0.00000
   D20        3.14159  -0.00000   0.00000   0.00000   0.00000   3.14159
   D21        3.14159   0.00000   0.00000   0.00000   0.00000   3.14159
   D22       -0.00000  -0.00000   0.00000   0.00000   0.00000   0.00000
         Item               Value     Threshold  Converged?
 Maximum Force            0.005377     0.000450     NO 
 RMS     Force            0.001323     0.000300     NO 
 Maximum Displacement     0.029841     0.001800     NO 
 RMS     Displacement     0.005504     0.001200     NO 
 Predicted change in Energy=-9.535794D-05
 Lowest energy point so far.  Saving SCF results.
 GradGradGradGradGradGradGradGradGradGradGradGradGradGradGradGradGradGrad

 Leave Link  103 at Fri Aug 27 00:16:18 2021, MaxMem= 17179869184 cpu:        79.0
 (Enter /public3/home/sc51754/softwares/g09e01/l202.exe)
                          Input orientation:                          
 ---------------------------------------------------------------------
 Center     Atomic      Atomic             Coordinates (Angstroms)
 Number     Number       Type             X           Y           Z
 ---------------------------------------------------------------------
      1          8           0        0.005290    2.245264   -0.000000
      2          7           0       -1.173272    0.295035   -0.000000
      3          6           0       -0.000601    0.898823   -0.000000
      4          6           0        1.221867    0.224569    0.000000
      5          6           0       -1.186311   -1.038970   -0.000000
      6          6           0        1.187243   -1.152855    0.000000
      7          6           0       -0.040623   -1.810302    0.000000
      8          1           0       -0.915556    2.531674   -0.000000
      9          1           0        2.144116    0.785107    0.000000
     10          1           0       -2.165710   -1.502046   -0.000000
     11          1           0        2.110406   -1.716673    0.000000
     12          1           0       -0.104066   -2.887726    0.000000
 ---------------------------------------------------------------------
                    Distance matrix (angstroms):
                    1          2          3          4          5
     1  O    0.000000
     2  N    2.278684   0.000000
     3  C    1.346454   1.318983   0.000000
     4  C    2.358658   2.396175   1.396083   0.000000
     5  C    3.493724   1.334069   2.271773   2.719532   0.000000
     6  C    3.597809   2.769191   2.370730   1.377860   2.376285
     7  C    4.055826   2.390677   2.709421   2.394699   1.381142
     8  H    0.964359   2.251438   1.871723   3.145045   3.580895
     9  H    2.589717   3.353391   2.147729   1.079234   3.797236
    10  H    4.330771   2.052909   3.232936   3.802221   1.083357
    11  H    4.486476   3.850911   3.361127   2.134930   3.365654
    12  H    5.134155   3.357554   3.787963   3.382969   2.142231
                    6          7          8          9         10
     6  C    0.000000
     7  C    1.392800   0.000000
     8  H    4.242349   4.429251   0.000000
     9  H    2.161320   3.392526   3.523079   0.000000
    10  H    3.371087   2.147328   4.223007   4.879106   0.000000
    11  H    1.081721   2.153066   5.215832   2.502008   4.281500
    12  H    2.162697   1.079290   5.479819   4.306278   2.484046
                   11         12
    11  H    0.000000
    12  H    2.505046   0.000000
 Stoichiometry    C5H5NO
 Framework group  CS[SG(C5H5NO)]
 Deg. of freedom    21
 Full point group                 CS      NOp   2
 RotChk:  IX=0 Diff= 5.69D-04
 Largest Abelian subgroup         CS      NOp   2
 Largest concise Abelian subgroup C1      NOp   1
                         Standard orientation:                         
 ---------------------------------------------------------------------
 Center     Atomic      Atomic             Coordinates (Angstroms)
 Number     Number       Type             X           Y           Z
 ---------------------------------------------------------------------
      1          8           0        0.006433    2.245956   -0.000000
      2          7           0       -1.172914    0.296202    0.000000
      3          6           0       -0.000000    0.899518   -0.000000
      4          6           0        1.222196    0.224772   -0.000000
      5          6           0       -1.186490   -1.037798    0.000000
      6          6           0        1.187018   -1.152639   -0.000000
      7          6           0       -0.041113   -1.809591    0.000000
      8          1           0       -0.914298    2.532737   -0.000000
      9          1           0        2.144671    0.784938   -0.000000
     10          1           0       -2.166076   -1.500480    0.000000
     11          1           0        2.109954   -1.716829   -0.000000
     12          1           0       -0.104990   -2.886990    0.000000
 ---------------------------------------------------------------------
 Rotational constants (GHZ):      5.9022805      2.7903581      1.8946464
 Leave Link  202 at Fri Aug 27 00:16:18 2021, MaxMem= 17179869184 cpu:         6.4
 (Enter /public3/home/sc51754/softwares/g09e01/l301.exe)
 Basis read from rwf:  (5D, 7F)
 No pseudopotential information found on rwf file.
 There are   223 symmetry adapted cartesian basis functions of A'  symmetry.
 There are    97 symmetry adapted cartesian basis functions of A"  symmetry.
 There are   190 symmetry adapted basis functions of A'  symmetry.
 There are    90 symmetry adapted basis functions of A"  symmetry.
   280 basis functions,   475 primitive gaussians,   320 cartesian basis functions
    25 alpha electrons       25 beta electrons
       nuclear repulsion energy       276.9077272772 Hartrees.
 IExCor= 4336 DFT=T Ex+Corr=M062X ExCW=0 ScaHFX=  0.540000
 ScaDFX=  1.000000  1.000000  1.000000  1.000000 ScalE2=  1.000000  1.000000
 IRadAn=      0 IRanWt=     -1 IRanGd=            0 ICorTp=0 IEmpDi=  4
 NAtoms=   12 NActive=   12 NUniq=   12 SFac= 1.00D+00 NAtFMM=   60 NAOKFM=F Big=F
 Integral buffers will be    131072 words long.
 Raffenetti 2 integral format.
 Two-electron integral symmetry is turned on.
 No density basis found on file   724.
 Leave Link  301 at Fri Aug 27 00:16:18 2021, MaxMem= 17179869184 cpu:         1.2
 (Enter /public3/home/sc51754/softwares/g09e01/l302.exe)
 NPDir=0 NMtPBC=     1 NCelOv=     1 NCel=       1 NClECP=     1 NCelD=      1
         NCelK=      1 NCelE2=     1 NClLst=     1 CellRange=     0.0.
 One-electron integrals computed using PRISM.
 NBasis=   280 RedAO= T EigKep=  2.19D-04  NBF=   190    90
 NBsUse=   280 1.00D-06 EigRej= -1.00D+00 NBFU=   190    90
 Precomputing XC quadrature grid using
 IXCGrd= 4 IRadAn=           0 IRanWt=          -1 IRanGd=           0 AccXCQ= 0.00D+00.
 Generated NRdTot=       0 NPtTot=           0 NUsed=           0 NTot=          32
 NSgBfM=   320   320   320   320   320 MxSgAt=    12 MxSgA2=    12.
 Leave Link  302 at Fri Aug 27 00:16:19 2021, MaxMem= 17179869184 cpu:        42.9
 (Enter /public3/home/sc51754/softwares/g09e01/l303.exe)
 DipDrv:  MaxL=1.
 Leave Link  303 at Fri Aug 27 00:16:19 2021, MaxMem= 17179869184 cpu:        10.0
 (Enter /public3/home/sc51754/softwares/g09e01/l401.exe)
 Initial guess from the checkpoint file:  "HY_M062X_PC2_OPT_FREQ.chk"
 B after Tr=    -0.000000    0.000000    0.000000
         Rot=    1.000000    0.000000   -0.000000   -0.000023 Ang=  -0.00 deg.
 Guess basis will be translated and rotated to current coordinates.
 JPrj=2 DoOrth=T DoCkMO=T.
 Initial guess orbital symmetries:
       Occupied  (A') (A') (A') (A') (A') (A') (A') (A') (A') (A')
                 (A') (A') (A') (A') (A') (A') (A") (A') (A') (A')
                 (A') (A") (A") (A') (A")
       Virtual   (A') (A') (A') (A') (A') (A') (A') (A') (A') (A')
                 (A') (A') (A') (A') (A') (A') (A') (A') (A') (A')
                 (A') (A') (A') (A') (A') (A') (A') (A') (A') (A')
                 (A') (A') (A') (A') (A') (A') (A') (A') (A') (A')
                 (A') (A') (A') (A') (A') (A') (A') (A') (A') (A')
                 (A') (A') (A') (A') (A') (A') (A') (A') (A') (A')
                 (A') (A') (A') (A') (A') (A') (A') (A') (A') (A')
                 (A') (A') (A') (A') (A') (A') (A') (A') (A') (A')
                 (A') (A') (A') (A') (A') (A') (A') (A') (A') (A')
                 (A') (A') (A') (A') (A') (A') (A') (A') (A') (A')
                 (A') (A') (A') (A') (A') (A') (A') (A') (A') (A')
                 (A') (A') (A') (A') (A') (A') (A') (A') (A') (A')
                 (A') (A') (A') (A') (A') (A') (A') (A') (A') (A')
                 (A') (A') (A') (A') (A') (A') (A') (A') (A') (A')
                 (A') (A') (A') (A') (A') (A') (A') (A') (A') (A')
                 (A') (A') (A') (A') (A') (A') (A') (A') (A') (A')
                 (A') (A') (A') (A') (A') (A') (A') (A') (A') (A")
                 (A") (A") (A") (A") (A") (A") (A") (A") (A") (A")
                 (A") (A") (A") (A") (A") (A") (A") (A") (A") (A")
                 (A") (A") (A") (A") (A") (A") (A") (A") (A") (A")
                 (A") (A") (A") (A") (A") (A") (A") (A") (A") (A")
                 (A") (A") (A") (A") (A") (A") (A") (A") (A") (A")
                 (A") (A") (A") (A") (A") (A") (A") (A") (A") (A")
                 (A") (A") (A") (A") (A") (A") (A") (A") (A") (A")
                 (A") (A") (A") (A") (A") (A") (A") (A") (A") (A")
                 (A") (A") (A") (A") (A")
 The electronic state of the initial guess is 1-A'.
 Generating alternative initial guess.
 ExpMin= 7.41D-02 ExpMax= 1.48D+04 ExpMxC= 5.05D+02 IAcc=2 IRadAn=         4 AccDes= 0.00D+00
 Harris functional with IExCor= 1009 and IRadAn=       4 diagonalized for initial guess.
 HarFok:  IExCor= 1009 AccDes= 0.00D+00 IRadAn=         4 IDoV= 1 UseB2=F ITyADJ=14
 ICtDFT=  3500011 ScaDFX=  1.000000  1.000000  1.000000  1.000000
 FoFCou: FMM=F IPFlag=           0 FMFlag=      100000 FMFlg1=           0
         NFxFlg=           0 DoJE=T BraDBF=F KetDBF=T FulRan=T
         wScrn=  0.000000 ICntrl=     500 IOpCl=  0 I1Cent=   200000004 NGrid=           0
         NMat0=    1 NMatS0=      1 NMatT0=    0 NMatD0=    1 NMtDS0=    0 NMtDT0=    0
 Petite list used in FoFCou.
 Harris En= -323.372548557301    
 Leave Link  401 at Fri Aug 27 00:16:21 2021, MaxMem= 17179869184 cpu:        82.1
 (Enter /public3/home/sc51754/softwares/g09e01/l502.exe)
 Closed shell SCF:
 Using DIIS extrapolation, IDIIS=  1040.
 Integral symmetry usage will be decided dynamically.
 Keep R1 ints in memory in symmetry-blocked form, NReq=1167802198.
 IVT=      348658 IEndB=      348658 NGot= 17179869184 MDV= 16785904737
 LenX= 16785904737 LenY= 16785801896
 Requested convergence on RMS density matrix=1.00D-08 within 128 cycles.
 Requested convergence on MAX density matrix=1.00D-06.
 Requested convergence on             energy=1.00D-06.
 No special actions if energy rises.
 FoFCou: FMM=F IPFlag=           0 FMFlag=           0 FMFlg1=           0
         NFxFlg=           0 DoJE=F BraDBF=F KetDBF=F FulRan=T
         wScrn=  0.000000 ICntrl=     600 IOpCl=  0 I1Cent=           0 NGrid=           0
         NMat0=    1 NMatS0=  39340 NMatT0=    0 NMatD0=    1 NMtDS0=    0 NMtDT0=    0
 Petite list used in FoFCou.
 Integral accuracy reduced to 1.0D-05 until final iterations.

 Cycle   1  Pass 0  IDiag  1:
 E= -323.524411778710    
 DIIS: error= 2.85D-04 at cycle   1 NSaved=   1.
 NSaved= 1 IEnMin= 1 EnMin= -323.524411778710     IErMin= 1 ErrMin= 2.85D-04
 ErrMax= 2.85D-04  0.00D+00 EMaxC= 1.00D-01 BMatC= 6.25D-05 BMatP= 6.25D-05
 IDIUse=3 WtCom= 9.97D-01 WtEn= 2.85D-03
 Coeff-Com:  0.100D+01
 Coeff-En:   0.100D+01
 Coeff:      0.100D+01
 Gap=     0.675 Goal=   None    Shift=    0.000
 RMSDP=3.46D-05 MaxDP=1.01D-03              OVMax= 1.14D-03

 Cycle   2  Pass 0  IDiag  1:
 E= -323.524455071918     Delta-E=       -0.000043293209 Rises=F Damp=F
 DIIS: error= 1.26D-04 at cycle   2 NSaved=   2.
 NSaved= 2 IEnMin= 2 EnMin= -323.524455071918     IErMin= 2 ErrMin= 1.26D-04
 ErrMax= 1.26D-04  0.00D+00 EMaxC= 1.00D-01 BMatC= 3.75D-06 BMatP= 6.25D-05
 IDIUse=3 WtCom= 9.99D-01 WtEn= 1.26D-03
 Coeff-Com:  0.796D-01 0.920D+00
 Coeff-En:   0.000D+00 0.100D+01
 Coeff:      0.795D-01 0.921D+00
 Gap=     0.299 Goal=   None    Shift=    0.000
 RMSDP=1.02D-05 MaxDP=5.10D-04 DE=-4.33D-05 OVMax= 6.88D-04

 Cycle   3  Pass 0  IDiag  1:
 E= -323.524457210811     Delta-E=       -0.000002138893 Rises=F Damp=F
 DIIS: error= 7.84D-05 at cycle   3 NSaved=   3.
 NSaved= 3 IEnMin= 3 EnMin= -323.524457210811     IErMin= 3 ErrMin= 7.84D-05
 ErrMax= 7.84D-05  0.00D+00 EMaxC= 1.00D-01 BMatC= 1.67D-06 BMatP= 3.75D-06
 IDIUse=1 WtCom= 1.00D+00 WtEn= 0.00D+00
 Coeff-Com: -0.245D-01 0.387D+00 0.638D+00
 Coeff:     -0.245D-01 0.387D+00 0.638D+00
 Gap=     0.299 Goal=   None    Shift=    0.000
 RMSDP=3.77D-06 MaxDP=1.87D-04 DE=-2.14D-06 OVMax= 3.93D-04

 Initial convergence to 1.0D-05 achieved.  Increase integral accuracy.
 Cycle   4  Pass 1  IDiag  1:
 E= -323.524504193699     Delta-E=       -0.000046982888 Rises=F Damp=F
 DIIS: error= 2.05D-04 at cycle   1 NSaved=   1.
 NSaved= 1 IEnMin= 1 EnMin= -323.524504193699     IErMin= 1 ErrMin= 2.05D-04
 ErrMax= 2.05D-04  0.00D+00 EMaxC= 1.00D-01 BMatC= 1.94D-05 BMatP= 1.94D-05
 IDIUse=3 WtCom= 9.98D-01 WtEn= 2.05D-03
 Coeff-Com:  0.100D+01
 Coeff-En:   0.100D+01
 Coeff:      0.100D+01
 Gap=     0.299 Goal=   None    Shift=    0.000
 RMSDP=3.77D-06 MaxDP=1.87D-04 DE=-4.70D-05 OVMax= 4.36D-04

 Cycle   5  Pass 1  IDiag  1:
 E= -323.524512985442     Delta-E=       -0.000008791743 Rises=F Damp=F
 DIIS: error= 3.14D-05 at cycle   2 NSaved=   2.
 NSaved= 2 IEnMin= 2 EnMin= -323.524512985442     IErMin= 2 ErrMin= 3.14D-05
 ErrMax= 3.14D-05  0.00D+00 EMaxC= 1.00D-01 BMatC= 3.58D-07 BMatP= 1.94D-05
 IDIUse=1 WtCom= 1.00D+00 WtEn= 0.00D+00
 Coeff-Com: -0.871D-02 0.101D+01
 Coeff:     -0.871D-02 0.101D+01
 Gap=     0.299 Goal=   None    Shift=    0.000
 RMSDP=3.66D-06 MaxDP=1.79D-04 DE=-8.79D-06 OVMax= 3.07D-04

 Cycle   6  Pass 1  IDiag  1:
 E= -323.524512869665     Delta-E=        0.000000115777 Rises=F Damp=F
 DIIS: error= 4.25D-05 at cycle   3 NSaved=   3.
 NSaved= 3 IEnMin= 2 EnMin= -323.524512985442     IErMin= 2 ErrMin= 3.14D-05
 ErrMax= 4.25D-05  0.00D+00 EMaxC= 1.00D-01 BMatC= 5.59D-07 BMatP= 3.58D-07
 IDIUse=1 WtCom= 1.00D+00 WtEn= 0.00D+00
 Coeff-Com: -0.236D-01 0.574D+00 0.449D+00
 Coeff:     -0.236D-01 0.574D+00 0.449D+00
 Gap=     0.299 Goal=   None    Shift=    0.000
 RMSDP=1.64D-06 MaxDP=1.07D-04 DE= 1.16D-07 OVMax= 1.91D-04

 Cycle   7  Pass 1  IDiag  1:
 E= -323.524513289645     Delta-E=       -0.000000419980 Rises=F Damp=F
 DIIS: error= 2.95D-06 at cycle   4 NSaved=   4.
 NSaved= 4 IEnMin= 4 EnMin= -323.524513289645     IErMin= 4 ErrMin= 2.95D-06
 ErrMax= 2.95D-06  0.00D+00 EMaxC= 1.00D-01 BMatC= 4.44D-09 BMatP= 3.58D-07
 IDIUse=1 WtCom= 1.00D+00 WtEn= 0.00D+00
 Coeff-Com: -0.549D-02 0.790D-01 0.962D-01 0.830D+00
 Coeff:     -0.549D-02 0.790D-01 0.962D-01 0.830D+00
 Gap=     0.299 Goal=   None    Shift=    0.000
 RMSDP=3.19D-07 MaxDP=1.68D-05 DE=-4.20D-07 OVMax= 2.45D-05

 Cycle   8  Pass 1  IDiag  1:
 E= -323.524513292229     Delta-E=       -0.000000002584 Rises=F Damp=F
 DIIS: error= 2.81D-06 at cycle   5 NSaved=   5.
 NSaved= 5 IEnMin= 5 EnMin= -323.524513292229     IErMin= 5 ErrMin= 2.81D-06
 ErrMax= 2.81D-06  0.00D+00 EMaxC= 1.00D-01 BMatC= 1.80D-09 BMatP= 4.44D-09
 IDIUse=1 WtCom= 1.00D+00 WtEn= 0.00D+00
 Coeff-Com:  0.412D-03-0.337D-01-0.124D-01 0.416D+00 0.629D+00
 Coeff:      0.412D-03-0.337D-01-0.124D-01 0.416D+00 0.629D+00
 Gap=     0.299 Goal=   None    Shift=    0.000
 RMSDP=1.34D-07 MaxDP=5.42D-06 DE=-2.58D-09 OVMax= 2.86D-05

 Cycle   9  Pass 1  IDiag  1:
 E= -323.524513294224     Delta-E=       -0.000000001995 Rises=F Damp=F
 DIIS: error= 6.11D-07 at cycle   6 NSaved=   6.
 NSaved= 6 IEnMin= 6 EnMin= -323.524513294224     IErMin= 6 ErrMin= 6.11D-07
 ErrMax= 6.11D-07  0.00D+00 EMaxC= 1.00D-01 BMatC= 1.09D-10 BMatP= 1.80D-09
 IDIUse=1 WtCom= 1.00D+00 WtEn= 0.00D+00
 Coeff-Com:  0.530D-03-0.177D-01-0.126D-01 0.904D-01 0.264D+00 0.675D+00
 Coeff:      0.530D-03-0.177D-01-0.126D-01 0.904D-01 0.264D+00 0.675D+00
 Gap=     0.299 Goal=   None    Shift=    0.000
 RMSDP=3.69D-08 MaxDP=1.31D-06 DE=-1.99D-09 OVMax= 3.73D-06

 Cycle  10  Pass 1  IDiag  1:
 E= -323.524513294327     Delta-E=       -0.000000000103 Rises=F Damp=F
 DIIS: error= 2.13D-07 at cycle   7 NSaved=   7.
 NSaved= 7 IEnMin= 7 EnMin= -323.524513294327     IErMin= 7 ErrMin= 2.13D-07
 ErrMax= 2.13D-07  0.00D+00 EMaxC= 1.00D-01 BMatC= 1.20D-11 BMatP= 1.09D-10
 IDIUse=1 WtCom= 1.00D+00 WtEn= 0.00D+00
 Coeff-Com:  0.146D-03-0.128D-02-0.409D-02-0.398D-01 0.169D-01 0.248D+00
 Coeff-Com:  0.780D+00
 Coeff:      0.146D-03-0.128D-02-0.409D-02-0.398D-01 0.169D-01 0.248D+00
 Coeff:      0.780D+00
 Gap=     0.299 Goal=   None    Shift=    0.000
 RMSDP=1.37D-08 MaxDP=7.62D-07 DE=-1.03D-10 OVMax= 1.73D-06

 Cycle  11  Pass 1  IDiag  1:
 E= -323.524513294347     Delta-E=       -0.000000000019 Rises=F Damp=F
 DIIS: error= 4.02D-08 at cycle   8 NSaved=   8.
 NSaved= 8 IEnMin= 8 EnMin= -323.524513294347     IErMin= 8 ErrMin= 4.02D-08
 ErrMax= 4.02D-08  0.00D+00 EMaxC= 1.00D-01 BMatC= 5.21D-13 BMatP= 1.20D-11
 IDIUse=1 WtCom= 1.00D+00 WtEn= 0.00D+00
 Coeff-Com: -0.533D-05 0.947D-03-0.180D-03-0.126D-01-0.106D-01-0.152D-01
 Coeff-Com:  0.133D+00 0.904D+00
 Coeff:     -0.533D-05 0.947D-03-0.180D-03-0.126D-01-0.106D-01-0.152D-01
 Coeff:      0.133D+00 0.904D+00
 Gap=     0.299 Goal=   None    Shift=    0.000
 RMSDP=4.11D-09 MaxDP=1.17D-07 DE=-1.94D-11 OVMax= 6.50D-07

 SCF Done:  E(RM062X) =  -323.524513294     A.U. after   11 cycles
            NFock= 11  Conv=0.41D-08     -V/T= 2.0040
 KE= 3.222444638262D+02 PE=-1.308459688486D+03 EE= 3.857829840885D+02
 Leave Link  502 at Fri Aug 27 00:16:29 2021, MaxMem= 17179869184 cpu:       363.2
 (Enter /public3/home/sc51754/softwares/g09e01/l701.exe)
 Compute integral first derivatives.
 ... and contract with generalized density number  0.
 Leave Link  701 at Fri Aug 27 00:16:31 2021, MaxMem= 17179869184 cpu:        91.3
 (Enter /public3/home/sc51754/softwares/g09e01/l702.exe)
 L702 exits ... SP integral derivatives will be done elsewhere.
 Leave Link  702 at Fri Aug 27 00:16:31 2021, MaxMem= 17179869184 cpu:         0.4
 (Enter /public3/home/sc51754/softwares/g09e01/l703.exe)
 Compute integral first derivatives, UseDBF=F ICtDFT=           0.
 Integral derivatives from FoFJK, PRISM(SPDF).
 Calling FoFJK, ICntrl=      2127 FMM=F ISym2X=1 I1Cent= 0 IOpClX= 0 NMat=1 NMatS=1 NMatT=0.
 FoFJK:  IHMeth= 1 ICntrl=    2127 DoSepK=F KAlg= 0 I1Cent=   0 FoldK=F
 IRaf=         0 NMat=   1 IRICut=       1 DoRegI=T DoRafI=F ISym2E= 1.
 FoFCou: FMM=F IPFlag=           0 FMFlag=      100000 FMFlg1=         800
[...]
     30  0.776423D-02  0.000000D+00  0.000000D+00 -0.263604D-03  0.000000D+00
     31  0.000000D+00  0.722886D-04 -0.938729D-04  0.000000D+00  0.591441D-03
     32  0.000000D+00  0.000000D+00 -0.446246D-03  0.000000D+00 -0.457300D-03
     33  0.541489D-02  0.000000D+00  0.000000D+00 -0.375159D-03  0.000000D+00
     34  0.000000D+00 -0.107224D-03 -0.253675D-03  0.000000D+00  0.190134D-03
     35  0.000000D+00  0.109802D-03  0.159319D-03  0.000000D+00  0.264576D-03
     36 -0.338660D-01  0.000000D+00  0.000000D+00 -0.194074D-04  0.000000D+00
               26            27            28            29            30 
     26  0.137259D+00
     27  0.000000D+00  0.251153D-01
     28 -0.474075D-04  0.000000D+00  0.302602D+00
     29  0.135811D-03  0.000000D+00  0.111175D+00  0.117054D+00
     30  0.000000D+00 -0.170168D-02  0.000000D+00  0.000000D+00  0.264999D-01
     31  0.355489D-03  0.000000D+00 -0.964343D-03  0.931152D-03  0.000000D+00
     32  0.110547D-02  0.000000D+00 -0.774935D-03  0.482991D-03  0.000000D+00
     33  0.000000D+00 -0.477103D-02  0.000000D+00  0.000000D+00 -0.526626D-03
     34 -0.136095D-02  0.000000D+00  0.539421D-03 -0.669884D-03  0.000000D+00
     35 -0.397154D-03  0.000000D+00  0.377733D-03  0.438084D-03  0.000000D+00
     36  0.000000D+00  0.475400D-03  0.000000D+00  0.000000D+00 -0.365912D-02
               31            32            33            34            35 
     31  0.279715D+00
     32 -0.135483D+00  0.140586D+00
     33  0.000000D+00  0.000000D+00  0.282913D-01
     34  0.993365D-03  0.691253D-03  0.000000D+00  0.567452D-01
     35 -0.248447D-03  0.571195D-03  0.000000D+00  0.175534D-01  0.364596D+00
     36  0.000000D+00  0.000000D+00 -0.374420D-02  0.000000D+00  0.000000D+00
               36 
     36  0.253237D-01
 FormGI is forming the generalized inverse of G from B-inverse, IUseBI=4.
 Leave Link  716 at Fri Aug 27 00:17:30 2021, MaxMem= 17179869184 cpu:        22.0
 (Enter /public3/home/sc51754/softwares/g09e01/l103.exe)

 GradGradGradGradGradGradGradGradGradGradGradGradGradGradGradGradGradGrad
 Berny optimization.
 Red2BG is reusing G-inverse.
 Internal  Forces:  Max     0.000322439 RMS     0.000077806
 Search for a local minimum.
 Step number   1 out of a maximum of    2
 All quantities printed in internal units (Hartrees-Bohrs-Radians)
 Second derivative matrix not updated -- analytic derivatives used.
 ITU=  0
     Eigenvalues ---    0.01281   0.01619   0.01820   0.02273   0.02395
     Eigenvalues ---    0.02756   0.03117   0.03733   0.04559   0.10376
     Eigenvalues ---    0.10961   0.11997   0.13072   0.16088   0.18940
     Eigenvalues ---    0.20108   0.21502   0.23641   0.31582   0.35381
     Eigenvalues ---    0.36275   0.36643   0.36881   0.39679   0.45567
     Eigenvalues ---    0.47052   0.49690   0.53712   0.54583   0.60371
 Angle between quadratic step and forces=  28.37 degrees.
 Linear search not attempted -- first point.
 Iteration  1 RMS(Cart)=  0.00023626 RMS(Int)=  0.00000007
 Iteration  2 RMS(Cart)=  0.00000009 RMS(Int)=  0.00000001
 ITry= 1 IFail=0 DXMaxC= 8.72D-04 DCOld= 1.00D+10 DXMaxT= 3.00D-01 DXLimC= 3.00D+00 Rises=F
 ClnCor:  largest displacement from symmetrization is 5.75D-12 for atom     1.
 Variable       Old X    -DE/DX   Delta X   Delta X   Delta X     New X
                                 (Linear)    (Quad)   (Total)
    R1        2.54487   0.00032   0.00000   0.00095   0.00095   2.54581
    R2        1.82180   0.00002   0.00000   0.00002   0.00002   1.82182
    R3        2.49193  -0.00028   0.00000  -0.00073  -0.00073   2.49120
    R4        2.52133   0.00015   0.00000   0.00057   0.00057   2.52191
    R5        2.63723  -0.00010   0.00000  -0.00008  -0.00008   2.63715
    R6        2.60332  -0.00010   0.00000  -0.00030  -0.00030   2.60302
    R7        2.03937  -0.00000   0.00000  -0.00001  -0.00001   2.03936
    R8        2.60973  -0.00021   0.00000  -0.00062  -0.00062   2.60911
    R9        2.04683   0.00002   0.00000   0.00003   0.00003   2.04686
   R10        2.63155  -0.00010   0.00000  -0.00003  -0.00003   2.63152
   R11        2.04390   0.00002   0.00000   0.00005   0.00005   2.04395
   R12        2.03947   0.00002   0.00000   0.00007   0.00007   2.03954
    A1        1.86317   0.00001   0.00000  -0.00014  -0.00014   1.86304
    A2        2.05458  -0.00008   0.00000  -0.00043  -0.00043   2.05415
    A3        2.05111  -0.00006   0.00000  -0.00011  -0.00011   2.05100
    A4        2.06816  -0.00004   0.00000  -0.00050  -0.00050   2.06766
    A5        2.16392   0.00010   0.00000   0.00060   0.00060   2.16452
    A6        2.04891  -0.00003   0.00000  -0.00024  -0.00024   2.04867
    A7        2.09148  -0.00002   0.00000  -0.00031  -0.00031   2.09117
    A8        2.14279   0.00005   0.00000   0.00055   0.00055   2.14335
    A9        2.15372  -0.00001   0.00000  -0.00008  -0.00008   2.15364
   A10        2.02146  -0.00001   0.00000  -0.00015  -0.00015   2.02131
   A11        2.10801   0.00001   0.00000   0.00023   0.00023   2.10824
   A12        2.08751  -0.00002   0.00000  -0.00014  -0.00014   2.08738
   A13        2.09357   0.00002   0.00000   0.00023   0.00023   2.09381
   A14        2.10210  -0.00000   0.00000  -0.00010  -0.00010   2.10200
   A15        2.05772   0.00003   0.00000   0.00029   0.00029   2.05801
   A16        2.10433  -0.00003   0.00000  -0.00021  -0.00021   2.10412
   A17        2.12114  -0.00000   0.00000  -0.00008  -0.00008   2.12106
    D1        0.00000   0.00000   0.00000   0.00000   0.00000   0.00000
    D2        3.14159   0.00000   0.00000   0.00000   0.00000   3.14159
    D3        3.14159   0.00000   0.00000   0.00000   0.00000   3.14159
    D4        0.00000   0.00000   0.00000   0.00000   0.00000   0.00000
    D5       -0.00000   0.00000   0.00000  -0.00000   0.00000   0.00000
    D6        3.14159   0.00000   0.00000   0.00000   0.00000   3.14159
    D7        3.14159  -0.00000   0.00000  -0.00000   0.00000   3.14159
    D8       -0.00000  -0.00000   0.00000   0.00000   0.00000   0.00000
    D9        0.00000  -0.00000   0.00000  -0.00000  -0.00000   0.00000
   D10        3.14159   0.00000   0.00000  -0.00000   0.00000   3.14159
   D11       -0.00000   0.00000   0.00000   0.00000   0.00000   0.00000
   D12        3.14159   0.00000   0.00000   0.00000   0.00000   3.14159
   D13        3.14159  -0.00000   0.00000  -0.00000   0.00000   3.14159
   D14        0.00000  -0.00000   0.00000  -0.00000  -0.00000   0.00000
   D15        0.00000  -0.00000   0.00000  -0.00000   0.00000   0.00000
   D16        3.14159  -0.00000   0.00000  -0.00000   0.00000   3.14159
   D17        3.14159  -0.00000   0.00000  -0.00000   0.00000   3.14159
   D18       -0.00000  -0.00000   0.00000  -0.00000   0.00000   0.00000
   D19        0.00000   0.00000   0.00000   0.00000  -0.00000   0.00000
   D20        3.14159   0.00000   0.00000   0.00000   0.00000   3.14159
   D21        3.14159  -0.00000   0.00000   0.00000   0.00000   3.14159
   D22       -0.00000  -0.00000   0.00000   0.00000   0.00000   0.00000
         Item               Value     Threshold  Converged?
 Maximum Force            0.000322     0.000450     YES
 RMS     Force            0.000078     0.000300     YES
 Maximum Displacement     0.000872     0.001800     YES
 RMS     Displacement     0.000236     0.001200     YES
 Predicted change in Energy=-4.790676D-07
 Optimization completed.
    -- Stationary point found.
                           ----------------------------
                           !   Optimized Parameters   !
                           ! (Angstroms and Degrees)  !
 --------------------------                            --------------------------
 ! Name  Definition              Value          Derivative Info.                !
 --------------------------------------------------------------------------------
 ! R1    R(1,3)                  1.3467         -DE/DX =    0.0003              !
 ! R2    R(1,8)                  0.9641         -DE/DX =    0.0                 !
 ! R3    R(2,3)                  1.3187         -DE/DX =   -0.0003              !
 ! R4    R(2,5)                  1.3342         -DE/DX =    0.0001              !
 ! R5    R(3,4)                  1.3956         -DE/DX =   -0.0001              !
 ! R6    R(4,6)                  1.3776         -DE/DX =   -0.0001              !
 ! R7    R(4,9)                  1.0792         -DE/DX =    0.0                 !
 ! R8    R(5,7)                  1.381          -DE/DX =   -0.0002              !
 ! R9    R(5,10)                 1.0831         -DE/DX =    0.0                 !
 ! R10   R(6,7)                  1.3926         -DE/DX =   -0.0001              !
 ! R11   R(6,11)                 1.0816         -DE/DX =    0.0                 !
 ! R12   R(7,12)                 1.0792         -DE/DX =    0.0                 !
 ! A1    A(3,1,8)              106.752          -DE/DX =    0.0                 !
 ! A2    A(3,2,5)              117.719          -DE/DX =   -0.0001              !
 ! A3    A(1,3,2)              117.5197         -DE/DX =   -0.0001              !
 ! A4    A(1,3,4)              118.4969         -DE/DX =    0.0                 !
 ! A5    A(2,3,4)              123.9834         -DE/DX =    0.0001              !
 ! A6    A(3,4,6)              117.3939         -DE/DX =    0.0                 !
 ! A7    A(3,4,9)              119.8331         -DE/DX =    0.0                 !
 ! A8    A(6,4,9)              122.773          -DE/DX =    0.0001              !
 ! A9    A(2,5,7)              123.3992         -DE/DX =    0.0                 !
 ! A10   A(2,5,10)             115.8209         -DE/DX =    0.0                 !
 ! A11   A(7,5,10)             120.7799         -DE/DX =    0.0                 !
 ! A12   A(4,6,7)              119.6057         -DE/DX =    0.0                 !
 ! A13   A(4,6,11)             119.9529         -DE/DX =    0.0                 !
 ! A14   A(7,6,11)             120.4414         -DE/DX =    0.0                 !
 ! A15   A(5,7,6)              117.8988         -DE/DX =    0.0                 !
 ! A16   A(5,7,12)             120.5691         -DE/DX =    0.0                 !
 ! A17   A(6,7,12)             121.5321         -DE/DX =    0.0                 !
 ! D1    D(8,1,3,2)              0.0            -DE/DX =    0.0                 !
 ! D2    D(8,1,3,4)            180.0            -DE/DX =    0.0                 !
 ! D3    D(5,2,3,1)            180.0            -DE/DX =    0.0                 !
 ! D4    D(5,2,3,4)              0.0            -DE/DX =    0.0                 !
 ! D5    D(3,2,5,7)              0.0            -DE/DX =    0.0                 !
 ! D6    D(3,2,5,10)           180.0            -DE/DX =    0.0                 !
 ! D7    D(1,3,4,6)            180.0            -DE/DX =    0.0                 !
 ! D8    D(1,3,4,9)              0.0            -DE/DX =    0.0                 !
 ! D9    D(2,3,4,6)              0.0            -DE/DX =    0.0                 !
 ! D10   D(2,3,4,9)            180.0            -DE/DX =    0.0                 !
 ! D11   D(3,4,6,7)              0.0            -DE/DX =    0.0                 !
 ! D12   D(3,4,6,11)           180.0            -DE/DX =    0.0                 !
 ! D13   D(9,4,6,7)            180.0            -DE/DX =    0.0                 !
 ! D14   D(9,4,6,11)             0.0            -DE/DX =    0.0                 !
 ! D15   D(2,5,7,6)              0.0            -DE/DX =    0.0                 !
 ! D16   D(2,5,7,12)           180.0            -DE/DX =    0.0                 !
 ! D17   D(10,5,7,6)           180.0            -DE/DX =    0.0                 !
 ! D18   D(10,5,7,12)            0.0            -DE/DX =    0.0                 !
 ! D19   D(4,6,7,5)              0.0            -DE/DX =    0.0                 !
 ! D20   D(4,6,7,12)           180.0            -DE/DX =    0.0                 !
 ! D21   D(11,6,7,5)           180.0            -DE/DX =    0.0                 !
 ! D22   D(11,6,7,12)            0.0            -DE/DX =    0.0                 !
 --------------------------------------------------------------------------------
 GradGradGradGradGradGradGradGradGradGradGradGradGradGradGradGradGradGrad

 Leave Link  103 at Fri Aug 27 00:17:31 2021, MaxMem= 17179869184 cpu:        50.8
 (Enter /public3/home/sc51754/softwares/g09e01/l9999.exe)
 1\1\GINC-R2613\Freq\RM062X\Gen\C5H5N1O1\SC51754\27-Aug-2021\0\\#P Geom
 =AllCheck Guess=TCheck SCRF=Check GenChk RM062X/ChkBas Freq\\HY_M062X_
 PC2_OPT_FREQ\\0,1\O,0.0069625026,2.2445504161,0.\N,-1.1739714531,0.295
 4718571,0.\C,-0.0009469313,0.8978890463,0.\C,1.2215984843,0.224858879,
 0.\C,-1.1864501648,-1.0387012942,0.\C,1.1869881237,-1.1523249462,0.\C,
 -0.0406675509,-1.8096532539,0.\H,-0.9145292014,2.5278366744,0.\H,2.143
 3950037,0.786056391,0.\H,-2.1658151162,-1.5013316652,0.\H,2.1102512012
 ,-1.7157208956,0.\H,-0.1040338979,-2.8870312089,0.\\Version=EM64L-G09R
 evE.01\State=1-A'\HF=-323.5245191\RMSD=1.768e-09\RMSF=1.565e-04\ZeroPo
 int=0.0943543\Thermal=0.0995253\Dipole=0.1902127,-0.5040726,0.\DipoleD
 eriv=-0.2517456,0.1366289,0.,0.1028013,-1.6552026,0.,0.,0.,-0.3866993,
 -0.4740974,-0.2678661,0.,0.1873366,-0.800769,0.,0.,0.,-0.2857894,0.276
 2267,-0.2273477,0.,-0.0627635,1.8450793,0.,0.,0.,0.2178555,-0.0352026,
 0.4117482,0.,-0.0673735,-0.4966691,0.,0.,0.,-0.1508422,0.4544668,0.138
 2441,0.,-0.2500255,0.3704537,0.,0.,0.,-0.0076436,0.2882752,0.0824334,0
 .,0.1444722,0.3591256,0.,0.,0.,-0.0936894,-0.5012479,-0.1427373,0.,0.0
 831933,-0.0823691,0.,0.,0.,-0.1575873,0.2302941,-0.0545409,0.,-0.08405
 36,0.4017388,0.,0.,0.,0.3253167,0.0074643,-0.0463947,0.,-0.044086,0.05
 02319,0.,0.,0.,0.1526313,-0.0408806,-0.0821177,0.,-0.0543651,0.0179033
 ,0.,0.,0.,0.1068177,-0.022039,0.0634553,0.,0.0609213,0.0470308,0.,0.,0
 .,0.1263545,0.0684859,-0.0115056,0.,-0.0160575,-0.0565535,0.,0.,0.,0.1
 532756\Polar=72.5923897,0.2591398,82.9143234,0.,0.,37.7645456\PG=CS [S
 G(C5H5N1O1)]\NImag=0\\0.60093701,-0.11208438,0.49340786,0.,0.,0.035365
 55,-0.00753325,-0.03375641,0.,0.49699945,-0.06791744,-0.05477648,0.,0.
 12760674,0.65038456,0.,0.,0.00709107,0.,0.,0.09292755,-0.10978251,-0.0
 1547155,0.,-0.32099476,-0.04626257,0.,0.73339773,0.03235626,-0.3165683
 7,0.,-0.09825339,-0.17726306,0.,-0.01580897,0.74653964,0.,0.,-0.052962
 58,0.,0.,-0.07427990,0.,0.,0.19138226,0.00019716,0.01564622,0.,-0.0673
 4932,-0.04048749,0.,-0.27290120,0.10643398,0.,0.72769266,0.05224032,-0
 .04505890,0.,0.02456961,0.07498430,0.,0.02332453,-0.15443246,0.,0.0568
 2154,0.74640695,0.,0.,0.00957575,0.,0.,0.02094474,0.,0.,-0.07837329,0.
 ,0.,0.12728165,-0.00595875,0.00271732,0.,-0.12415639,-0.02025419,0.,0.
 02746201,-0.04839857,0.,-0.02165582,0.03049151,0.,0.76580398,0.0100880
 2,0.00119153,0.,0.02084667,-0.35728191,0.,-0.12258658,-0.04642962,0.,0
 .04291684,-0.06528893,0.,0.03265566,0.69412221,0.,0.,0.01087500,0.,0.,
 -0.06602786,0.,0.,-0.00332195,0.,0.,-0.00605644,0.,0.,0.16324430,-0.01
 178227,0.00442399,0.,-0.02537450,-0.04608279,0.,0.05779562,0.03034508,
 0.,-0.13624765,0.02866354,0.,-0.06331246,0.03912825,0.,0.73271922,-0.0
 0700066,0.00923141,0.,-0.04018003,-0.06572860,0.,0.09730528,-0.0325083
 2,0.,-0.04248753,-0.38246673,0.,-0.02391981,0.08167563,0.,-0.04014106,
 0.72341028,0.,0.,0.00476203,0.,0.,-0.00820831,0.,0.,0.00269783,0.,0.,-
 0.06018423,0.,0.,0.00823146,0.,0.,0.14904453,0.00957796,-0.00612427,0.
 ,0.05306094,0.09608946,0.,-0.09909842,0.00095867,0.,0.04108584,-0.0838
 6074,0.,-0.29047541,0.05232858,0.,-0.29293464,-0.04713108,0.,0.6700593
 0,-0.00207154,-0.00741860,0.,0.02095796,-0.05143136,0.,0.01501050,0.00
 490664,0.,-0.03366007,-0.02250448,0.,0.13340295,-0.19389394,0.,-0.1216
 6472,-0.17779590,0.,0.00047028,0.77427391,0.,0.,-0.00141366,0.,0.,0.02
 322895,0.,0.,-0.00973017,0.,0.,0.00745386,0.,0.,-0.07064290,0.,0.,-0.0
 6521913,0.,0.,0.12762683,-0.47785853,0.14507802,0.,-0.00115385,-0.0046
 9151,0.,-0.00210642,0.01117080,0.,0.00282517,-0.00265926,0.,-0.0006983
 4,-0.00144292,0.,0.00023171,0.00116949,0.,-0.00097059,-0.00058025,0.,0
 .47966382,0.09457838,-0.07897876,0.,0.00200733,0.00706497,0.,0.0532861
 2,-0.02738870,0.,-0.00222050,-0.00687651,0.,-0.00068368,-0.00206494,0.
 ,0.00241696,0.00063305,0.,-0.00132899,0.00106504,0.,-0.14782878,0.1064
 3139,0.,0.,-0.00976569,0.,0.,-0.00336514,0.,0.,0.00099453,0.,0.,0.0031
 7673,0.,0.,-0.00064461,0.,0.,0.00139727,0.,0.,0.00052373,0.,0.,0.00898
 887,0.00152808,-0.00043946,0.,-0.00567199,0.00275966,0.,-0.01608653,-0
 .01896552,0.,-0.27405213,-0.12636558,0.,0.00037541,0.00243026,0.,0.005
 34492,0.00178971,0.,0.00237711,0.00085002,0.,0.00005279,-0.00002508,0.
 ,0.28540791,-0.00060420,0.00071329,0.,0.00529436,-0.00023818,0.,0.0126
 7523,0.01178963,0.,-0.12857086,-0.13445413,0.,0.00041012,-0.00154181,0
 .,-0.02765578,-0.00932096,0.,0.00142261,-0.00514816,0.,-0.00025224,0.0
 0009715,0.,0.13833363,0.13725903,0.,0.,-0.00206062,0.,0.,0.00579851,0.
 ,0.,0.00234943,0.,0.,-0.03544010,0.,0.,-0.00023321,0.,0.,0.00225616,0.
 ,0.,0.00885936,0.,0.,-0.00064753,0.,0.,0.02511530,-0.00013182,-0.00024
 674,0.,0.00560227,-0.00468107,0.,0.00330667,0.00182008,0.,0.00034090,0
 .00092186,0.,-0.29151932,-0.09909640,0.,-0.00340978,0.00391940,0.,-0.0
 1635803,-0.01351287,0.,0.00004918,0.00014578,0.,-0.00005714,-0.0000474
 1,0.,0.30260200,-0.00119177,-0.00113994,0.,-0.03174995,-0.02419362,0.,
 -0.00062122,-0.00431758,0.,0.00011802,-0.00075216,0.,-0.09707560,-0.09
 800814,0.,0.00338678,-0.00160695,0.,0.01594684,0.01160278,0.,-0.000073
 99,0.00030424,0.,-0.00017493,0.00013581,0.,0.11117456,0.11705447,0.,0.
 ,0.00035459,0.,0.,-0.00318639,0.,0.,0.01065829,0.,0.,-0.00063287,0.,0.
 ,-0.04301317,0.,0.,0.00770649,0.,0.,0.00776423,0.,0.,-0.00026360,0.,0.
 ,-0.00170168,0.,0.,0.02649986,0.00002462,0.00018064,0.,0.00040595,-0.0
 0075834,0.,0.00199839,-0.00137198,0.,0.00474123,-0.00212842,0.,-0.0040
 9109,-0.00394830,0.,-0.26668122,0.12565475,0.,-0.01680560,0.01691009,0
 .,0.00007229,-0.00009387,0.,0.00059144,0.00035549,0.,-0.00096434,0.000
 93115,0.,0.27971495,0.00180472,-0.00075489,0.,-0.00059971,-0.00078837,
 0.,-0.00133161,-0.00515081,0.,0.02801602,-0.01050053,0.,-0.00359916,-0
 .00060545,0.,0.12515054,-0.13690493,0.,-0.01341788,0.01240526,0.,0.000
 00084,-0.00044625,0.,-0.00045730,0.00110547,0.,-0.00077493,0.00048299,
 0.,-0.13548277,0.14058631,0.,0.,-0.00040292,0.,0.,-0.00321229,0.,0.,0.
 01005607,0.,0.,0.00555276,0.,0.,0.00764189,0.,0.,-0.04392473,0.,0.,0.0
 0541489,0.,0.,-0.00037516,0.,0.,-0.00477103,0.,0.,-0.00052663,0.,0.,0.
 02829135,0.00078230,0.00007662,0.,-0.00383455,0.00467952,0.,-0.0029905
 7,-0.00028643,0.,-0.00467683,-0.00201891,0.,0.00822619,0.02667990,0.,0
 .00365105,-0.02897848,0.,-0.05951845,-0.01611236,0.,-0.00010722,-0.000
 25368,0.,0.00019013,-0.00136095,0.,0.00053942,-0.00066988,0.,0.0009933
 6,0.00069125,0.,0.05674517,-0.00019771,0.00015185,0.,0.00325684,-0.000
 73225,0.,0.00048084,0.00082301,0.,-0.00252619,0.00094357,0.,-0.0057465
 6,-0.01187464,0.,0.00202921,-0.00861796,0.,-0.01535349,-0.34606120,0.,
 0.00010980,0.00015932,0.,0.00026458,-0.00039715,0.,0.00037773,0.000438
 08,0.,-0.00024845,0.00057120,0.,0.01755339,0.36459618,0.,0.,-0.0014185
 1,0.,0.,0.00828905,0.,0.,0.00052948,0.,0.,0.00670145,0.,0.,-0.00005251
 ,0.,0.,0.00144063,0.,0.,-0.03386598,0.,0.,-0.00001941,0.,0.,0.00047540
 ,0.,0.,-0.00365912,0.,0.,-0.00374420,0.,0.,0.02532372\\-0.00002978,-0.
 00031048,0.,-0.00017571,-0.00037161,0.,0.00011826,0.00063222,0.,0.0000
 2070,0.00004306,0.,-0.00020874,0.00027907,0.,0.00011507,-0.00004155,0.
 ,0.00007951,-0.00022642,0.,-0.00000394,-0.00002162,0.,0.00001078,-0.00
 001393,0.,0.00003313,-0.00002082,0.,0.00000392,0.00003519,0.,0.0000367
 8,0.00001690,0.\\\@


 SEEN ON A WALL AT THE UNIVERSITY OF ILLINOIS AT CHICAGO CIRCLE:

 TO DO IS TO BE  -- SOCRATES
 TO BE IS TO DO  -- SARTRE
 OO BE DO BE DO  -- SINATRA
 Job cpu time:       0 days  0 hours 42 minutes 52.1 seconds.
 File lengths (MBytes):  RWF=     80 Int=      0 D2E=      0 Chk=      7 Scr=      1
 Normal termination of Gaussian 09 at Fri Aug 27 00:17:32 2021.
