 Entering Gaussian System, Link 0=g09
 AtFile(1): pc-2.gbs
            -H     0
            S    4   1.00
                  0.754230D+02           0.240650D-02
                  0.113500D+02           0.184870D-01
                  0.259930D+01           0.897420D-01
                  0.735130D+00           0.281110D+00
            S    1   1.00
                  0.231670D+00           0.100000D+01
            S    1   1.00
                  0.741470D-01           0.100000D+01
            P    1   1.00
                  0.160000D+01           0.100000D+01
            P    1   1.00
                  0.450000D+00           0.100000D+01
            D    1   1.00
                  0.125000D+01           0.100000D+01
            ****
            -C     0
            S    7   1.00
                  0.785710D+04           0.568250D-03
                  0.117870D+04           0.439150D-02
                  0.268320D+03           0.225040D-01
                  0.759480D+02           0.866530D-01
                  0.245590D+02           0.244050D+00
                  0.862120D+01           0.441480D+00
                  0.312780D+01           0.353320D+00
            S    7   1.00
                  0.117870D+04          -0.594920D-06
                  0.268320D+03          -0.627480D-04
                  0.759480D+02          -0.757730D-03
                  0.245590D+02          -0.733080D-02
                  0.862120D+01          -0.389320D-01
                  0.312780D+01          -0.889080D-01
                  0.822020D+00           0.216890D+00
            S    1   1.00
                  0.330170D+00           0.100000D+01
            S    1   1.00
                  0.114630D+00           0.100000D+01
            P    4   1.00
                  0.337750D+02           0.602940D-02
                  0.767660D+01           0.432280D-01
                  0.223570D+01           0.163010D+00
                  0.764470D+00           0.365040D+00
            P    1   1.00
                  0.262320D+00           0.100000D+01
            P    1   1.00
                  0.846380D-01           0.100000D+01
            D    1   1.00
                  0.140000D+01           0.100000D+01
            D    1   1.00
                  0.450000D+00           0.100000D+01
            F    1   1.00
                  0.950000D+00           0.100000D+01
            ****
            -N     0
            S    7   1.00
                  0.111010D+05           0.545700D-03
                  0.166530D+04           0.421810D-02
                  0.379080D+03           0.216450D-01
                  0.107300D+03           0.837760D-01
                  0.347470D+02           0.238810D+00
                  0.122490D+02           0.439940D+00
                  0.447430D+01           0.363640D+00
            S    7   1.00
                  0.166530D+04          -0.150060D-05
                  0.379080D+03          -0.587530D-04
                  0.107300D+03          -0.774530D-03
                  0.347470D+02          -0.721610D-02
                  0.122490D+02          -0.393380D-01
                  0.447430D+01          -0.906110D-01
                  0.124040D+01           0.198820D+00
            S    1   1.00
                  0.487430D+00           0.100000D+01
            S    1   1.00
                  0.164840D+00           0.100000D+01
            P    4   1.00
                  0.479340D+02           0.617060D-02
                  0.109990D+02           0.442600D-01
                  0.324720D+01           0.168250D+00
                  0.111140D+01           0.368480D+00
            P    1   1.00
                  0.379880D+00           0.100000D+01
            P    1   1.00
                  0.120680D+00           0.100000D+01
            D    1   1.00
                  0.180000D+01           0.100000D+01
            D    1   1.00
                  0.550000D+00           0.100000D+01
            F    1   1.00
                  0.102000D+01           0.100000D+01
            ****
            -O     0
            S    7   1.00
                  0.147820D+05           0.535190D-03
                  0.221730D+04           0.413750D-02
                  0.504740D+03           0.212450D-01
                  0.142870D+03           0.824530D-01
                  0.463000D+02           0.236710D+00
                  0.163370D+02           0.440390D+00
                  0.598280D+01           0.364650D+00
            S    7   1.00
                  0.221730D+04          -0.192750D-05
                  0.504740D+03          -0.579640D-04
                  0.142870D+03          -0.794940D-03
                  0.463000D+02          -0.731250D-02
                  0.163370D+02          -0.405740D-01
                  0.598280D+01          -0.915940D-01
                  0.167180D+01           0.209400D+00
            S    1   1.00
                  0.646620D+00           0.100000D+01
            S    1   1.00
                  0.216690D+00           0.100000D+01
            P    4   1.00
                  0.604240D+02           0.689490D-02
                  0.139350D+02           0.490050D-01
                  0.415310D+01           0.182550D+00
                  0.141580D+01           0.376330D+00
            P    1   1.00
                  0.475490D+00           0.100000D+01
            P    1   1.00
                  0.145290D+00           0.100000D+01
            D    1   1.00
                  0.220000D+01           0.100000D+01
            D    1   1.00
                  0.650000D+00           0.100000D+01
            F    1   1.00
                  0.110000D+01           0.100000D+01
            ****
 Initial command:
 /public3/home/sc51754/softwares/g09e01/l1.exe "./Gau-65281.inp" -scrdir="./"
 Entering Link 1 = /public3/home/sc51754/softwares/g09e01/l1.exe PID=     65282.
  
 Copyright (c) 1988,1990,1992,1993,1995,1998,2003,2009,2015,
            Gaussian, Inc.  All Rights Reserved.
  
 This is part of the Gaussian(R) 09 program.  It is based on
 the Gaussian(R) 03 system (copyright 2003, Gaussian, Inc.),
 the Gaussian(R) 98 system (copyright 1998, Gaussian, Inc.),
 the Gaussian(R) 94 system (copyright 1995, Gaussian, Inc.),
 the Gaussian 92(TM) system (copyright 1992, Gaussian, Inc.),
 the Gaussian 90(TM) system (copyright 1990, Gaussian, Inc.),
 the Gaussian 88(TM) system (copyright 1988, Gaussian, Inc.),
 the Gaussian 86(TM) system (copyright 1986, Carnegie Mellon
 University), and the Gaussian 82(TM) system (copyright 1983,
 Carnegie Mellon University). Gaussian is a federally registered
 trademark of Gaussian, Inc.
  
 This software contains proprietary and confidential information,
 including trade secrets, belonging to Gaussian, Inc.
  
 This software is provided under written license and may be
 used, copied, transmitted, or stored only in accord with that
 written license.
  
 The following legend is applicable only to US Government
 contracts under FAR:
  
                    RESTRICTED RIGHTS LEGEND
  
 Use, reproduction and disclosure by the US Government is
 subject to restrictions as set forth in subparagraphs (a)
 and (c) of the Commercial Computer Software - Restricted
 Rights clause in FAR 52.227-19.
  
 Gaussian, Inc.
 340 Quinnipiac St., Bldg. 40, Wallingford CT 06492
  
  
 ---------------------------------------------------------------
 Warning -- This program may not be used in any manner that
 competes with the business of Gaussian, Inc. or will provide
 assistance to any competitor of Gaussian, Inc.  The licensee
 of this program is prohibited from giving any competitor of
 Gaussian, Inc. access to this program.  By using this program,
 the user acknowledges that Gaussian, Inc. is engaged in the
 business of creating and licensing software in the field of
 computational chemistry and represents and warrants to the
 licensee that it is not a competitor of Gaussian, Inc. and that
 it will not use this program in any manner prohibited above.
 ---------------------------------------------------------------
  

 Cite this work as:
 Gaussian 09, Revision E.01,
 M. J. Frisch, G. W. Trucks, H. B. Schlegel, G. E. Scuseria, 
 M. A. Robb, J. R. Cheeseman, G. Scalmani, V. Barone, B. Mennucci, 
 G. A. Petersson, H. Nakatsuji, M. Caricato, X. Li, H. P. Hratchian, 
 A. F. Izmaylov, J. Bloino, G. Zheng, J. L. Sonnenberg, M. Hada, 
 M. Ehara, K. Toyota, R. Fukuda, J. Hasegawa, M. Ishida, T. Nakajima, 
 Y. Honda, O. Kitao, H. Nakai, T. Vreven, J. A. Montgomery, Jr., 
 J. E. Peralta, F. Ogliaro, M. Bearpark, J. J. Heyd, E. Brothers, 
 K. N. Kudin, V. N. Staroverov, T. Keith, R. Kobayashi, J. Normand, 
 K. Raghavachari, A. Rendell, J. C. Burant, S. S. Iyengar, J. Tomasi, 
 M. Cossi, N. Rega, J. M. Millam, M. Klene, J. E. Knox, J. B. Cross, 
 V. Bakken, C. Adamo, J. Jaramillo, R. Gomperts, R. E. Stratmann, 
 O. Yazyev, A. J. Austin, R. Cammi, C. Pomelli, J. W. Ochterski, 
 R. L. Martin, K. Morokuma, V. G. Zakrzewski, G. A. Voth, 
 P. Salvador, J. J. Dannenberg, S. Dapprich, A. D. Daniels, 
 O. Farkas, J. B. Foresman, J. V. Ortiz, J. Cioslowski, 
 and D. J. Fox, Gaussian, Inc., Wallingford CT, 2013.
 
 ******************************************
 Gaussian 09:  EM64L-G09RevE.01 30-Nov-2015
                27-Aug-2021 
 ******************************************
 %nprocshared=64
 Will use up to   64 processors via shared memory.
 %mem=128GB
 %chk=PY_M062X_PC2_OPT_FREQ.chk
 ---------------------
 #p opt freq M062X/gen
 ---------------------
 1/14=-1,18=20,19=15,26=3,38=1/1,3;
 2/9=110,12=2,17=6,18=5,40=1/2;
 3/5=7,11=2,16=1,25=1,30=1,71=1,74=-55/1,2,3;
 4//1;
 5/5=2,38=5/2;
 6/7=2,8=2,9=2,10=2,28=1/1;
 7//1,2,3,16;
 1/14=-1,18=20,19=15,26=3/3(2);
 2/9=110/2;
 99//99;
 2/9=110/2;
 3/5=7,6=1,11=2,16=1,25=1,30=1,71=1,74=-55,82=7/1,2,3;
 4/5=5,16=3,69=1/1;
 5/5=2,38=5/2;
 7//1,2,3,16;
 1/14=-1,18=20,19=15,26=3/3(-5);
 2/9=110/2;
 6/7=2,8=2,9=2,10=2,19=2,28=1/1;
 99/9=1/99;
 Leave Link    1 at Fri Aug 27 00:16:47 2021, MaxMem= 17179869184 cpu:         3.8
 (Enter /public3/home/sc51754/softwares/g09e01/l101.exe)
 ---------------------
 PY_M062X_PC2_OPT_FREQ
 ---------------------
 Symbolic Z-matrix:
 Charge =  0 Multiplicity = 1
 O                    -0.1303    2.2679    0. 
 N                    -1.13214   0.23327   0. 
 C                     0.        1.06201   0. 
 C                     1.23795   0.32011   0. 
 C                    -1.11441  -1.12189   0. 
 C                     1.25607  -1.03234   0. 
 C                     0.05856  -1.79159   0. 
 H                    -2.00762   0.73274   0. 
 H                     2.14422   0.90837   0. 
 H                    -2.07697  -1.61403   0. 
 H                     2.20675  -1.5513    0. 
 H                     0.072    -2.86964   0. 
 
 NAtoms=     12 NQM=       12 NQMF=       0 NMMI=      0 NMMIF=      0
                NMic=       0 NMicF=      0.
                    Isotopes and Nuclear Properties:
 (Nuclear quadrupole moments (NQMom) in fm**2, nuclear magnetic moments (NMagM)
  in nuclear magnetons)

  Atom         1           2           3           4           5           6           7           8           9          10
 IAtWgt=          16          14          12          12          12          12          12           1           1           1
 AtmWgt=  15.9949146  14.0030740  12.0000000  12.0000000  12.0000000  12.0000000  12.0000000   1.0078250   1.0078250   1.0078250
 NucSpn=           0           2           0           0           0           0           0           1           1           1
 AtZEff=   0.0000000   0.0000000   0.0000000   0.0000000   0.0000000   0.0000000   0.0000000   0.0000000   0.0000000   0.0000000
 NQMom=    0.0000000   2.0440000   0.0000000   0.0000000   0.0000000   0.0000000   0.0000000   0.0000000   0.0000000   0.0000000
 NMagM=    0.0000000   0.4037610   0.0000000   0.0000000   0.0000000   0.0000000   0.0000000   2.7928460   2.7928460   2.7928460
 AtZNuc=   8.0000000   7.0000000   6.0000000   6.0000000   6.0000000   6.0000000   6.0000000   1.0000000   1.0000000   1.0000000

  Atom        11          12
 IAtWgt=           1           1
 AtmWgt=   1.0078250   1.0078250
 NucSpn=           1           1
 AtZEff=   0.0000000   0.0000000
 NQMom=    0.0000000   0.0000000
 NMagM=    2.7928460   2.7928460
 AtZNuc=   1.0000000   1.0000000
 Leave Link  101 at Fri Aug 27 00:16:47 2021, MaxMem= 17179869184 cpu:         5.1
 (Enter /public3/home/sc51754/softwares/g09e01/l103.exe)

 GradGradGradGradGradGradGradGradGradGradGradGradGradGradGradGradGradGrad
 Berny optimization.
 Initialization pass.
                           ----------------------------
                           !    Initial Parameters    !
                           ! (Angstroms and Degrees)  !
 --------------------------                            --------------------------
 ! Name  Definition              Value          Derivative Info.                !
 --------------------------------------------------------------------------------
 ! R1    R(1,3)                  1.2129         estimate D2E/DX2                !
 ! R2    R(2,3)                  1.403          estimate D2E/DX2                !
 ! R3    R(2,5)                  1.3553         estimate D2E/DX2                !
 ! R4    R(2,8)                  1.0079         estimate D2E/DX2                !
 ! R5    R(3,4)                  1.4432         estimate D2E/DX2                !
 ! R6    R(4,6)                  1.3526         estimate D2E/DX2                !
 ! R7    R(4,9)                  1.0805         estimate D2E/DX2                !
 ! R8    R(5,7)                  1.3507         estimate D2E/DX2                !
 ! R9    R(5,10)                 1.0811         estimate D2E/DX2                !
 ! R10   R(6,7)                  1.4179         estimate D2E/DX2                !
 ! R11   R(6,11)                 1.0831         estimate D2E/DX2                !
 ! R12   R(7,12)                 1.0781         estimate D2E/DX2                !
 ! A1    A(3,2,5)              125.4546         estimate D2E/DX2                !
 ! A2    A(3,2,8)              114.0905         estimate D2E/DX2                !
 ! A3    A(5,2,8)              120.4549         estimate D2E/DX2                !
 ! A4    A(1,3,2)              120.0371         estimate D2E/DX2                !
 ! A5    A(1,3,4)              127.1013         estimate D2E/DX2                !
 ! A6    A(2,3,4)              112.8616         estimate D2E/DX2                !
 ! A7    A(3,4,6)              121.7019         estimate D2E/DX2                !
 ! A8    A(3,4,9)              116.0785         estimate D2E/DX2                !
 ! A9    A(6,4,9)              122.2196         estimate D2E/DX2                !
 ! A10   A(2,5,7)              120.4739         estimate D2E/DX2                !
 ! A11   A(2,5,10)             116.3305         estimate D2E/DX2                !
 ! A12   A(7,5,10)             123.1956         estimate D2E/DX2                !
 ! A13   A(4,6,7)              121.6078         estimate D2E/DX2                !
 ! A14   A(4,6,11)             119.3971         estimate D2E/DX2                !
 ! A15   A(7,6,11)             118.9951         estimate D2E/DX2                !
 ! A16   A(5,7,6)              117.9002         estimate D2E/DX2                !
 ! A17   A(5,7,12)             120.4381         estimate D2E/DX2                !
 ! A18   A(6,7,12)             121.6617         estimate D2E/DX2                !
 ! D1    D(5,2,3,1)            180.0            estimate D2E/DX2                !
 ! D2    D(5,2,3,4)              0.0            estimate D2E/DX2                !
 ! D3    D(8,2,3,1)              0.0            estimate D2E/DX2                !
 ! D4    D(8,2,3,4)            180.0            estimate D2E/DX2                !
 ! D5    D(3,2,5,7)              0.0            estimate D2E/DX2                !
 ! D6    D(3,2,5,10)           180.0            estimate D2E/DX2                !
 ! D7    D(8,2,5,7)            180.0            estimate D2E/DX2                !
 ! D8    D(8,2,5,10)             0.0            estimate D2E/DX2                !
 ! D9    D(1,3,4,6)            180.0            estimate D2E/DX2                !
 ! D10   D(1,3,4,9)              0.0            estimate D2E/DX2                !
 ! D11   D(2,3,4,6)              0.0            estimate D2E/DX2                !
 ! D12   D(2,3,4,9)            180.0            estimate D2E/DX2                !
 ! D13   D(3,4,6,7)              0.0            estimate D2E/DX2                !
 ! D14   D(3,4,6,11)           180.0            estimate D2E/DX2                !
 ! D15   D(9,4,6,7)            180.0            estimate D2E/DX2                !
 ! D16   D(9,4,6,11)             0.0            estimate D2E/DX2                !
 ! D17   D(2,5,7,6)              0.0            estimate D2E/DX2                !
 ! D18   D(2,5,7,12)           180.0            estimate D2E/DX2                !
 ! D19   D(10,5,7,6)           180.0            estimate D2E/DX2                !
 ! D20   D(10,5,7,12)            0.0            estimate D2E/DX2                !
 ! D21   D(4,6,7,5)              0.0            estimate D2E/DX2                !
 ! D22   D(4,6,7,12)           180.0            estimate D2E/DX2                !
 ! D23   D(11,6,7,5)           180.0            estimate D2E/DX2                !
 ! D24   D(11,6,7,12)            0.0            estimate D2E/DX2                !
 --------------------------------------------------------------------------------
 Trust Radius=3.00D-01 FncErr=1.00D-07 GrdErr=1.00D-06
 Number of steps in this run=     64 maximum allowed number of steps=    100.
 GradGradGradGradGradGradGradGradGradGradGradGradGradGradGradGradGradGrad

 Leave Link  103 at Fri Aug 27 00:16:47 2021, MaxMem= 17179869184 cpu:         0.2
 (Enter /public3/home/sc51754/softwares/g09e01/l202.exe)
                          Input orientation:                          
 ---------------------------------------------------------------------
 Center     Atomic      Atomic             Coordinates (Angstroms)
 Number     Number       Type             X           Y           Z
 ---------------------------------------------------------------------
      1          8           0       -0.130304    2.267896    0.000000
      2          7           0       -1.132141    0.233271    0.000000
      3          6           0        0.000000    1.062005    0.000000
      4          6           0        1.237945    0.320111    0.000000
      5          6           0       -1.114407   -1.121885    0.000000
      6          6           0        1.256071   -1.032342    0.000000
      7          6           0        0.058564   -1.791590    0.000000
      8          1           0       -2.007624    0.732742    0.000000
      9          1           0        2.144218    0.908369    0.000000
     10          1           0       -2.076968   -1.614034    0.000000
     11          1           0        2.206750   -1.551299    0.000000
     12          1           0        0.071999   -2.869636    0.000000
 ---------------------------------------------------------------------
                    Distance matrix (angstroms):
                    1          2          3          4          5
     1  O    0.000000
     2  N    2.267901   0.000000
     3  C    1.212911   1.403048   0.000000
     4  C    2.380330   2.371676   1.443231   0.000000
     5  C    3.529741   1.355272   2.451791   2.759151   0.000000
     6  C    3.579610   2.702838   2.442131   1.352574   2.372169
     7  C    4.063877   2.349008   2.854196   2.418723   1.350691
     8  H    2.425083   1.007939   2.034445   3.271694   2.058514
     9  H    2.649861   3.345188   2.149715   1.080453   3.839345
    10  H    4.342681   2.074906   3.387474   3.837912   1.081080
    11  H    4.477507   3.785879   3.420395   2.107311   3.348803
    12  H    5.141514   3.328361   3.932300   3.396162   2.112390
                    6          7          8          9         10
     6  C    0.000000
     7  C    1.417914   0.000000
     8  H    3.710421   3.262114   0.000000
     9  H    2.134283   3.411705   4.155555   0.000000
    10  H    3.383418   2.142901   2.347800   4.917411   0.000000
    11  H    1.083101   2.161583   4.793516   2.460463   4.284177
    12  H    2.185790   1.078130   4.159562   4.308992   2.488894
                   11         12
    11  H    0.000000
    12  H    2.509019   0.000000
 Stoichiometry    C5H5NO
 Framework group  CS[SG(C5H5NO)]
 Deg. of freedom    21
 Full point group                 CS      NOp   2
 Largest Abelian subgroup         CS      NOp   2
 Largest concise Abelian subgroup C1      NOp   1
                         Standard orientation:                         
 ---------------------------------------------------------------------
 Center     Atomic      Atomic             Coordinates (Angstroms)
 Number     Number       Type             X           Y           Z
 ---------------------------------------------------------------------
      1          8           0       -0.130304    2.267896    0.000000
      2          7           0       -1.132141    0.233271    0.000000
      3          6           0       -0.000000    1.062005    0.000000
      4          6           0        1.237945    0.320111   -0.000000
      5          6           0       -1.114407   -1.121885    0.000000
      6          6           0        1.256071   -1.032342   -0.000000
      7          6           0        0.058564   -1.791590   -0.000000
      8          1           0       -2.007624    0.732742    0.000000
      9          1           0        2.144218    0.908369   -0.000000
     10          1           0       -2.076968   -1.614034    0.000000
     11          1           0        2.206750   -1.551299   -0.000000
     12          1           0        0.071999   -2.869636   -0.000000
 ---------------------------------------------------------------------
 Rotational constants (GHZ):      5.7341355      2.8228169      1.8916098
 Leave Link  202 at Fri Aug 27 00:16:47 2021, MaxMem= 17179869184 cpu:         7.1
 (Enter /public3/home/sc51754/softwares/g09e01/l301.exe)
 General basis read from cards:  (5D, 7F)
 Centers:       8      9     10     11     12
 S 4 1.00
     Exponent=  7.5423000000D+01 Coefficients=  2.4065000000D-03
     Exponent=  1.1350000000D+01 Coefficients=  1.8487000000D-02
     Exponent=  2.5993000000D+00 Coefficients=  8.9742000000D-02
     Exponent=  7.3513000000D-01 Coefficients=  2.8111000000D-01
 S 1 1.00
     Exponent=  2.3167000000D-01 Coefficients=  1.0000000000D+00
 S 1 1.00
     Exponent=  7.4147000000D-02 Coefficients=  1.0000000000D+00
 P 1 1.00
     Exponent=  1.6000000000D+00 Coefficients=  1.0000000000D+00
 P 1 1.00
     Exponent=  4.5000000000D-01 Coefficients=  1.0000000000D+00
 D 1 1.00
     Exponent=  1.2500000000D+00 Coefficients=  1.0000000000D+00
 ****
 Centers:       3      4      5      6      7
 S 7 1.00
     Exponent=  7.8571000000D+03 Coefficients=  5.6825000000D-04
     Exponent=  1.1787000000D+03 Coefficients=  4.3915000000D-03
     Exponent=  2.6832000000D+02 Coefficients=  2.2504000000D-02
     Exponent=  7.5948000000D+01 Coefficients=  8.6653000000D-02
     Exponent=  2.4559000000D+01 Coefficients=  2.4405000000D-01
     Exponent=  8.6212000000D+00 Coefficients=  4.4148000000D-01
     Exponent=  3.1278000000D+00 Coefficients=  3.5332000000D-01
 S 7 1.00
     Exponent=  1.1787000000D+03 Coefficients= -5.9492000000D-07
     Exponent=  2.6832000000D+02 Coefficients= -6.2748000000D-05
     Exponent=  7.5948000000D+01 Coefficients= -7.5773000000D-04
     Exponent=  2.4559000000D+01 Coefficients= -7.3308000000D-03
     Exponent=  8.6212000000D+00 Coefficients= -3.8932000000D-02
     Exponent=  3.1278000000D+00 Coefficients= -8.8908000000D-02
     Exponent=  8.2202000000D-01 Coefficients=  2.1689000000D-01
 S 1 1.00
     Exponent=  3.3017000000D-01 Coefficients=  1.0000000000D+00
 S 1 1.00
     Exponent=  1.1463000000D-01 Coefficients=  1.0000000000D+00
 P 4 1.00
     Exponent=  3.3775000000D+01 Coefficients=  6.0294000000D-03
     Exponent=  7.6766000000D+00 Coefficients=  4.3228000000D-02
     Exponent=  2.2357000000D+00 Coefficients=  1.6301000000D-01
     Exponent=  7.6447000000D-01 Coefficients=  3.6504000000D-01
 P 1 1.00
     Exponent=  2.6232000000D-01 Coefficients=  1.0000000000D+00
 P 1 1.00
     Exponent=  8.4638000000D-02 Coefficients=  1.0000000000D+00
 D 1 1.00
     Exponent=  1.4000000000D+00 Coefficients=  1.0000000000D+00
 D 1 1.00
     Exponent=  4.5000000000D-01 Coefficients=  1.0000000000D+00
 F 1 1.00
     Exponent=  9.5000000000D-01 Coefficients=  1.0000000000D+00
 ****
 Centers:       2
 S 7 1.00
     Exponent=  1.1101000000D+04 Coefficients=  5.4570000000D-04
     Exponent=  1.6653000000D+03 Coefficients=  4.2181000000D-03
     Exponent=  3.7908000000D+02 Coefficients=  2.1645000000D-02
     Exponent=  1.0730000000D+02 Coefficients=  8.3776000000D-02
     Exponent=  3.4747000000D+01 Coefficients=  2.3881000000D-01
     Exponent=  1.2249000000D+01 Coefficients=  4.3994000000D-01
     Exponent=  4.4743000000D+00 Coefficients=  3.6364000000D-01
 S 7 1.00
     Exponent=  1.6653000000D+03 Coefficients= -1.5006000000D-06
     Exponent=  3.7908000000D+02 Coefficients= -5.8753000000D-05
     Exponent=  1.0730000000D+02 Coefficients= -7.7453000000D-04
     Exponent=  3.4747000000D+01 Coefficients= -7.2161000000D-03
     Exponent=  1.2249000000D+01 Coefficients= -3.9338000000D-02
     Exponent=  4.4743000000D+00 Coefficients= -9.0611000000D-02
     Exponent=  1.2404000000D+00 Coefficients=  1.9882000000D-01
 S 1 1.00
     Exponent=  4.8743000000D-01 Coefficients=  1.0000000000D+00
 S 1 1.00
     Exponent=  1.6484000000D-01 Coefficients=  1.0000000000D+00
 P 4 1.00
     Exponent=  4.7934000000D+01 Coefficients=  6.1706000000D-03
     Exponent=  1.0999000000D+01 Coefficients=  4.4260000000D-02
     Exponent=  3.2472000000D+00 Coefficients=  1.6825000000D-01
     Exponent=  1.1114000000D+00 Coefficients=  3.6848000000D-01
 P 1 1.00
     Exponent=  3.7988000000D-01 Coefficients=  1.0000000000D+00
 P 1 1.00
     Exponent=  1.2068000000D-01 Coefficients=  1.0000000000D+00
 D 1 1.00
     Exponent=  1.8000000000D+00 Coefficients=  1.0000000000D+00
 D 1 1.00
     Exponent=  5.5000000000D-01 Coefficients=  1.0000000000D+00
 F 1 1.00
     Exponent=  1.0200000000D+00 Coefficients=  1.0000000000D+00
 ****
 Centers:       1
 S 7 1.00
     Exponent=  1.4782000000D+04 Coefficients=  5.3519000000D-04
     Exponent=  2.2173000000D+03 Coefficients=  4.1375000000D-03
     Exponent=  5.0474000000D+02 Coefficients=  2.1245000000D-02
     Exponent=  1.4287000000D+02 Coefficients=  8.2453000000D-02
     Exponent=  4.6300000000D+01 Coefficients=  2.3671000000D-01
     Exponent=  1.6337000000D+01 Coefficients=  4.4039000000D-01
     Exponent=  5.9828000000D+00 Coefficients=  3.6465000000D-01
 S 7 1.00
     Exponent=  2.2173000000D+03 Coefficients= -1.9275000000D-06
     Exponent=  5.0474000000D+02 Coefficients= -5.7964000000D-05
     Exponent=  1.4287000000D+02 Coefficients= -7.9494000000D-04
     Exponent=  4.6300000000D+01 Coefficients= -7.3125000000D-03
     Exponent=  1.6337000000D+01 Coefficients= -4.0574000000D-02
     Exponent=  5.9828000000D+00 Coefficients= -9.1594000000D-02
     Exponent=  1.6718000000D+00 Coefficients=  2.0940000000D-01
 S 1 1.00
     Exponent=  6.4662000000D-01 Coefficients=  1.0000000000D+00
 S 1 1.00
     Exponent=  2.1669000000D-01 Coefficients=  1.0000000000D+00
 P 4 1.00
     Exponent=  6.0424000000D+01 Coefficients=  6.8949000000D-03
     Exponent=  1.3935000000D+01 Coefficients=  4.9005000000D-02
     Exponent=  4.1531000000D+00 Coefficients=  1.8255000000D-01
     Exponent=  1.4158000000D+00 Coefficients=  3.7633000000D-01
 P 1 1.00
     Exponent=  4.7549000000D-01 Coefficients=  1.0000000000D+00
 P 1 1.00
     Exponent=  1.4529000000D-01 Coefficients=  1.0000000000D+00
 D 1 1.00
     Exponent=  2.2000000000D+00 Coefficients=  1.0000000000D+00
 D 1 1.00
     Exponent=  6.5000000000D-01 Coefficients=  1.0000000000D+00
 F 1 1.00
     Exponent=  1.1000000000D+00 Coefficients=  1.0000000000D+00
 ****
 Ernie: Thresh=  0.10000D-02 Tol=  0.10000D-05 Strict=F.
 Ernie:  7 primitive shells out of 220 were deleted.
 There are   223 symmetry adapted cartesian basis functions of A'  symmetry.
 There are    97 symmetry adapted cartesian basis functions of A"  symmetry.
 There are   190 symmetry adapted basis functions of A'  symmetry.
 There are    90 symmetry adapted basis functions of A"  symmetry.
   280 basis functions,   475 primitive gaussians,   320 cartesian basis functions
    25 alpha electrons       25 beta electrons
       nuclear repulsion energy       276.8386644497 Hartrees.
 IExCor= 4336 DFT=T Ex+Corr=M062X ExCW=0 ScaHFX=  0.540000
 ScaDFX=  1.000000  1.000000  1.000000  1.000000 ScalE2=  1.000000  1.000000
 IRadAn=      0 IRanWt=     -1 IRanGd=            0 ICorTp=0 IEmpDi=  4
 NAtoms=   12 NActive=   12 NUniq=   12 SFac= 1.00D+00 NAtFMM=   60 NAOKFM=F Big=F
 Integral buffers will be    131072 words long.
 Raffenetti 2 integral format.
 Two-electron integral symmetry is turned on.
 Leave Link  301 at Fri Aug 27 00:16:47 2021, MaxMem= 17179869184 cpu:         2.7
 (Enter /public3/home/sc51754/softwares/g09e01/l302.exe)
 NPDir=0 NMtPBC=     1 NCelOv=     1 NCel=       1 NClECP=     1 NCelD=      1
         NCelK=      1 NCelE2=     1 NClLst=     1 CellRange=     0.0.
 One-electron integrals computed using PRISM.
 NBasis=   280 RedAO= T EigKep=  2.29D-04  NBF=   190    90
 NBsUse=   280 1.00D-06 EigRej= -1.00D+00 NBFU=   190    90
 Precomputing XC quadrature grid using
 IXCGrd= 4 IRadAn=           0 IRanWt=          -1 IRanGd=           0 AccXCQ= 0.00D+00.
 Generated NRdTot=       0 NPtTot=           0 NUsed=           0 NTot=          32
 NSgBfM=   320   320   320   320   320 MxSgAt=    12 MxSgA2=    12.
 Leave Link  302 at Fri Aug 27 00:16:48 2021, MaxMem= 17179869184 cpu:        40.0
 (Enter /public3/home/sc51754/softwares/g09e01/l303.exe)
 DipDrv:  MaxL=1.
 Leave Link  303 at Fri Aug 27 00:16:48 2021, MaxMem= 17179869184 cpu:        10.0
 (Enter /public3/home/sc51754/softwares/g09e01/l401.exe)
 ExpMin= 7.41D-02 ExpMax= 1.48D+04 ExpMxC= 5.05D+02 IAcc=2 IRadAn=         4 AccDes= 0.00D+00
 Harris functional with IExCor= 1009 and IRadAn=       4 diagonalized for initial guess.
 HarFok:  IExCor= 1009 AccDes= 0.00D+00 IRadAn=         4 IDoV= 1 UseB2=F ITyADJ=14
 ICtDFT=  3500011 ScaDFX=  1.000000  1.000000  1.000000  1.000000
 FoFCou: FMM=F IPFlag=           0 FMFlag=      100000 FMFlg1=           0
         NFxFlg=           0 DoJE=T BraDBF=F KetDBF=T FulRan=T
         wScrn=  0.000000 ICntrl=     500 IOpCl=  0 I1Cent=   200000004 NGrid=           0
         NMat0=    1 NMatS0=      1 NMatT0=    0 NMatD0=    1 NMtDS0=    0 NMtDT0=    0
 Petite list used in FoFCou.
 Harris En= -323.391688734430    
 JPrj=0 DoOrth=F DoCkMO=F.
 Initial guess orbital symmetries:
       Occupied  (A') (A') (A') (A') (A') (A') (A') (A') (A') (A')
                 (A') (A') (A') (A') (A') (A') (A') (A') (A") (A')
                 (A') (A") (A") (A') (A")
       Virtual   (A") (A") (A') (A') (A") (A') (A') (A') (A') (A')
                 (A') (A') (A") (A') (A") (A') (A") (A') (A') (A')
                 (A') (A') (A") (A') (A") (A') (A') (A') (A') (A')
                 (A") (A') (A') (A') (A") (A') (A') (A') (A') (A')
                 (A') (A') (A") (A') (A') (A') (A") (A') (A") (A")
                 (A') (A") (A') (A') (A") (A') (A') (A') (A') (A")
                 (A') (A") (A') (A') (A") (A') (A") (A') (A") (A")
                 (A') (A') (A') (A") (A') (A") (A') (A") (A') (A')
                 (A") (A') (A") (A') (A") (A') (A') (A') (A") (A")
                 (A') (A') (A") (A') (A') (A') (A') (A") (A') (A')
                 (A') (A') (A") (A') (A') (A') (A") (A') (A') (A')
                 (A") (A') (A') (A') (A') (A') (A") (A') (A') (A")
                 (A') (A') (A") (A') (A') (A") (A") (A") (A') (A")
                 (A') (A') (A") (A') (A") (A') (A') (A") (A') (A')
                 (A') (A') (A") (A') (A") (A') (A') (A') (A') (A')
                 (A') (A") (A") (A") (A") (A') (A") (A") (A') (A")
                 (A') (A") (A') (A') (A") (A') (A') (A') (A') (A")
                 (A') (A") (A') (A") (A") (A') (A') (A") (A") (A")
                 (A') (A") (A') (A") (A") (A') (A') (A") (A') (A")
                 (A') (A") (A') (A") (A') (A") (A') (A') (A") (A')
                 (A') (A') (A") (A") (A') (A') (A") (A') (A') (A')
                 (A") (A') (A') (A") (A') (A") (A') (A") (A') (A')
                 (A") (A') (A") (A') (A") (A') (A') (A') (A") (A')
                 (A') (A') (A') (A") (A') (A") (A') (A') (A') (A')
                 (A') (A") (A') (A') (A') (A') (A') (A') (A') (A')
                 (A') (A') (A') (A') (A')
 The electronic state of the initial guess is 1-A'.
 Leave Link  401 at Fri Aug 27 00:16:49 2021, MaxMem= 17179869184 cpu:        38.9
 (Enter /public3/home/sc51754/softwares/g09e01/l502.exe)
 Closed shell SCF:
 Using DIIS extrapolation, IDIIS=  1040.
 Integral symmetry usage will be decided dynamically.
 Keep R1 ints in memory in symmetry-blocked form, NReq=1167802198.
 IVT=      348658 IEndB=      348658 NGot= 17179869184 MDV= 16785904737
 LenX= 16785904737 LenY= 16785801896
 Requested convergence on RMS density matrix=1.00D-08 within 128 cycles.
 Requested convergence on MAX density matrix=1.00D-06.
 Requested convergence on             energy=1.00D-06.
 No special actions if energy rises.
 FoFCou: FMM=F IPFlag=           0 FMFlag=           0 FMFlg1=           0
         NFxFlg=           0 DoJE=F BraDBF=F KetDBF=F FulRan=T
         wScrn=  0.000000 ICntrl=     600 IOpCl=  0 I1Cent=           0 NGrid=           0
         NMat0=    1 NMatS0=  39340 NMatT0=    0 NMatD0=    1 NMtDS0=    0 NMtDT0=    0
 Petite list used in FoFCou.
 Integral accuracy reduced to 1.0D-05 until final iterations.

 Cycle   1  Pass 0  IDiag  1:
 E= -323.314525190008    
 DIIS: error= 3.19D-02 at cycle   1 NSaved=   1.
 NSaved= 1 IEnMin= 1 EnMin= -323.314525190008     IErMin= 1 ErrMin= 3.19D-02
 ErrMax= 3.19D-02  0.00D+00 EMaxC= 1.00D-01 BMatC= 2.50D-01 BMatP= 2.50D-01
 IDIUse=3 WtCom= 6.81D-01 WtEn= 3.19D-01
 Coeff-Com:  0.100D+01
 Coeff-En:   0.100D+01
 Coeff:      0.100D+01
 Gap=     0.234 Goal=   None    Shift=    0.000
 GapD=    0.234 DampG=1.000 DampE=0.500 DampFc=0.5000 IDamp=-1.
 Damping current iteration by 5.00D-01
 RMSDP=2.87D-03 MaxDP=1.18D-01              OVMax= 2.40D-01

 Cycle   2  Pass 0  IDiag  1:
 E= -323.408769251907     Delta-E=       -0.094244061899 Rises=F Damp=T
 DIIS: error= 9.40D-03 at cycle   2 NSaved=   2.
 NSaved= 2 IEnMin= 2 EnMin= -323.408769251907     IErMin= 2 ErrMin= 9.40D-03
 ErrMax= 9.40D-03  0.00D+00 EMaxC= 1.00D-01 BMatC= 2.35D-02 BMatP= 2.50D-01
 IDIUse=3 WtCom= 9.06D-01 WtEn= 9.40D-02
 Coeff-Com:  0.234D-01 0.977D+00
 Coeff-En:   0.214D-01 0.979D+00
 Coeff:      0.232D-01 0.977D+00
 Gap=     0.279 Goal=   None    Shift=    0.000
 RMSDP=8.08D-04 MaxDP=3.29D-02 DE=-9.42D-02 OVMax= 1.40D-01

 Cycle   3  Pass 0  IDiag  1:
 E= -323.509328755041     Delta-E=       -0.100559503134 Rises=F Damp=F
 DIIS: error= 7.57D-03 at cycle   3 NSaved=   3.
 NSaved= 3 IEnMin= 3 EnMin= -323.509328755041     IErMin= 3 ErrMin= 7.57D-03
 ErrMax= 7.57D-03  0.00D+00 EMaxC= 1.00D-01 BMatC= 1.53D-02 BMatP= 2.35D-02
 IDIUse=3 WtCom= 9.24D-01 WtEn= 7.57D-02
 Coeff-Com: -0.665D-01 0.462D+00 0.604D+00
 Coeff-En:   0.000D+00 0.000D+00 0.100D+01
 Coeff:     -0.615D-01 0.427D+00 0.634D+00
 Gap=     0.260 Goal=   None    Shift=    0.000
 RMSDP=3.80D-04 MaxDP=1.83D-02 DE=-1.01D-01 OVMax= 4.90D-02

 Cycle   4  Pass 0  IDiag  1:
 E= -323.519458049748     Delta-E=       -0.010129294707 Rises=F Damp=F
 DIIS: error= 3.03D-03 at cycle   4 NSaved=   4.
 NSaved= 4 IEnMin= 4 EnMin= -323.519458049748     IErMin= 4 ErrMin= 3.03D-03
 ErrMax= 3.03D-03  0.00D+00 EMaxC= 1.00D-01 BMatC= 2.51D-03 BMatP= 1.53D-02
 IDIUse=3 WtCom= 9.70D-01 WtEn= 3.03D-02
 Coeff-Com: -0.223D-01 0.658D-01 0.319D+00 0.638D+00
 Coeff-En:   0.000D+00 0.000D+00 0.127D+00 0.873D+00
 Coeff:     -0.217D-01 0.638D-01 0.313D+00 0.645D+00
 Gap=     0.263 Goal=   None    Shift=    0.000
 RMSDP=1.26D-04 MaxDP=5.71D-03 DE=-1.01D-02 OVMax= 1.05D-02

 Cycle   5  Pass 0  IDiag  1:
 E= -323.521476287151     Delta-E=       -0.002018237403 Rises=F Damp=F
 DIIS: error= 3.81D-04 at cycle   5 NSaved=   5.
 NSaved= 5 IEnMin= 5 EnMin= -323.521476287151     IErMin= 5 ErrMin= 3.81D-04
 ErrMax= 3.81D-04  0.00D+00 EMaxC= 1.00D-01 BMatC= 4.12D-05 BMatP= 2.51D-03
 IDIUse=3 WtCom= 9.96D-01 WtEn= 3.81D-03
 Coeff-Com: -0.376D-02 0.106D-02 0.763D-01 0.207D+00 0.719D+00
 Coeff-En:   0.000D+00 0.000D+00 0.000D+00 0.000D+00 0.100D+01
 Coeff:     -0.374D-02 0.106D-02 0.760D-01 0.206D+00 0.720D+00
 Gap=     0.262 Goal=   None    Shift=    0.000
 RMSDP=2.45D-05 MaxDP=1.20D-03 DE=-2.02D-03 OVMax= 4.25D-03

 Cycle   6  Pass 0  IDiag  1:
 E= -323.521517723146     Delta-E=       -0.000041435995 Rises=F Damp=F
 DIIS: error= 2.63D-04 at cycle   6 NSaved=   6.
 NSaved= 6 IEnMin= 6 EnMin= -323.521517723146     IErMin= 6 ErrMin= 2.63D-04
 ErrMax= 2.63D-04  0.00D+00 EMaxC= 1.00D-01 BMatC= 8.79D-06 BMatP= 4.12D-05
 IDIUse=3 WtCom= 9.97D-01 WtEn= 2.63D-03
 Coeff-Com:  0.120D-03-0.457D-02 0.139D-01 0.470D-01 0.336D+00 0.608D+00
 Coeff-En:   0.000D+00 0.000D+00 0.000D+00 0.000D+00 0.000D+00 0.100D+01
 Coeff:      0.120D-03-0.456D-02 0.139D-01 0.468D-01 0.335D+00 0.609D+00
 Gap=     0.262 Goal=   None    Shift=    0.000
 RMSDP=1.20D-05 MaxDP=4.42D-04 DE=-4.14D-05 OVMax= 1.46D-03

 Cycle   7  Pass 0  IDiag  1:
 E= -323.521527960751     Delta-E=       -0.000010237605 Rises=F Damp=F
 DIIS: error= 7.24D-05 at cycle   7 NSaved=   7.
 NSaved= 7 IEnMin= 7 EnMin= -323.521527960751     IErMin= 7 ErrMin= 7.24D-05
 ErrMax= 7.24D-05  0.00D+00 EMaxC= 1.00D-01 BMatC= 1.16D-06 BMatP= 8.79D-06
 IDIUse=1 WtCom= 1.00D+00 WtEn= 0.00D+00
 Coeff-Com:  0.120D-02-0.205D-02-0.134D-01-0.424D-01-0.849D-01 0.162D+00
 Coeff-Com:  0.979D+00
 Coeff:      0.120D-02-0.205D-02-0.134D-01-0.424D-01-0.849D-01 0.162D+00
 Coeff:      0.979D+00
 Gap=     0.263 Goal=   None    Shift=    0.000
 RMSDP=7.78D-06 MaxDP=2.66D-04 DE=-1.02D-05 OVMax= 1.31D-03

 Initial convergence to 1.0D-05 achieved.  Increase integral accuracy.
 Cycle   8  Pass 1  IDiag  1:
 E= -323.521522419931     Delta-E=        0.000005540820 Rises=F Damp=F
 DIIS: error= 2.02D-04 at cycle   1 NSaved=   1.
 NSaved= 1 IEnMin= 1 EnMin= -323.521522419931     IErMin= 1 ErrMin= 2.02D-04
 ErrMax= 2.02D-04  0.00D+00 EMaxC= 1.00D-01 BMatC= 2.01D-05 BMatP= 2.01D-05
 IDIUse=3 WtCom= 9.98D-01 WtEn= 2.02D-03
 Coeff-Com:  0.100D+01
 Coeff-En:   0.100D+01
 Coeff:      0.100D+01
 Gap=     0.263 Goal=   None    Shift=    0.000
 RMSDP=7.78D-06 MaxDP=2.66D-04 DE= 5.54D-06 OVMax= 4.19D-04

 Cycle   9  Pass 1  IDiag  1:
 E= -323.521531382515     Delta-E=       -0.000008962583 Rises=F Damp=F
 DIIS: error= 3.19D-05 at cycle   2 NSaved=   2.
 NSaved= 2 IEnMin= 2 EnMin= -323.521531382515     IErMin= 2 ErrMin= 3.19D-05
 ErrMax= 3.19D-05  0.00D+00 EMaxC= 1.00D-01 BMatC= 4.15D-07 BMatP= 2.01D-05
 IDIUse=1 WtCom= 1.00D+00 WtEn= 0.00D+00
 Coeff-Com: -0.668D-03 0.100D+01
 Coeff:     -0.668D-03 0.100D+01
 Gap=     0.262 Goal=   None    Shift=    0.000
 RMSDP=3.42D-06 MaxDP=1.56D-04 DE=-8.96D-06 OVMax= 2.69D-04

 Cycle  10  Pass 1  IDiag  1:
 E= -323.521531365467     Delta-E=        0.000000017048 Rises=F Damp=F
 DIIS: error= 3.85D-05 at cycle   3 NSaved=   3.
 NSaved= 3 IEnMin= 2 EnMin= -323.521531382515     IErMin= 2 ErrMin= 3.19D-05
 ErrMax= 3.85D-05  0.00D+00 EMaxC= 1.00D-01 BMatC= 4.57D-07 BMatP= 4.15D-07
 IDIUse=1 WtCom= 1.00D+00 WtEn= 0.00D+00
 Coeff-Com: -0.210D-01 0.524D+00 0.497D+00
 Coeff:     -0.210D-01 0.524D+00 0.497D+00
 Gap=     0.262 Goal=   None    Shift=    0.000
 RMSDP=1.59D-06 MaxDP=9.82D-05 DE= 1.70D-08 OVMax= 1.97D-04

 Cycle  11  Pass 1  IDiag  1:
 E= -323.521531721342     Delta-E=       -0.000000355875 Rises=F Damp=F
 DIIS: error= 4.19D-06 at cycle   4 NSaved=   4.
 NSaved= 4 IEnMin= 4 EnMin= -323.521531721342     IErMin= 4 ErrMin= 4.19D-06
 ErrMax= 4.19D-06  0.00D+00 EMaxC= 1.00D-01 BMatC= 7.08D-09 BMatP= 4.15D-07
 IDIUse=1 WtCom= 1.00D+00 WtEn= 0.00D+00
 Coeff-Com: -0.649D-02 0.113D+00 0.157D+00 0.736D+00
 Coeff:     -0.649D-02 0.113D+00 0.157D+00 0.736D+00
 Gap=     0.262 Goal=   None    Shift=    0.000
 RMSDP=3.54D-07 MaxDP=1.76D-05 DE=-3.56D-07 OVMax= 5.13D-05

 Cycle  12  Pass 1  IDiag  1:
 E= -323.521531726907     Delta-E=       -0.000000005565 Rises=F Damp=F
 DIIS: error= 2.99D-06 at cycle   5 NSaved=   5.
 NSaved= 5 IEnMin= 5 EnMin= -323.521531726907     IErMin= 5 ErrMin= 2.99D-06
 ErrMax= 2.99D-06  0.00D+00 EMaxC= 1.00D-01 BMatC= 1.98D-09 BMatP= 7.08D-09
 IDIUse=1 WtCom= 1.00D+00 WtEn= 0.00D+00
 Coeff-Com:  0.605D-03-0.387D-01-0.890D-02 0.371D+00 0.676D+00
 Coeff:      0.605D-03-0.387D-01-0.890D-02 0.371D+00 0.676D+00
 Gap=     0.262 Goal=   None    Shift=    0.000
 RMSDP=1.63D-07 MaxDP=5.74D-06 DE=-5.56D-09 OVMax= 2.61D-05

 Cycle  13  Pass 1  IDiag  1:
 E= -323.521531729074     Delta-E=       -0.000000002167 Rises=F Damp=F
 DIIS: error= 6.97D-07 at cycle   6 NSaved=   6.
 NSaved= 6 IEnMin= 6 EnMin= -323.521531729074     IErMin= 6 ErrMin= 6.97D-07
 ErrMax= 6.97D-07  0.00D+00 EMaxC= 1.00D-01 BMatC= 9.48D-11 BMatP= 1.98D-09
 IDIUse=1 WtCom= 1.00D+00 WtEn= 0.00D+00
 Coeff-Com:  0.535D-03-0.181D-01-0.108D-01 0.621D-01 0.222D+00 0.744D+00
 Coeff:      0.535D-03-0.181D-01-0.108D-01 0.621D-01 0.222D+00 0.744D+00
 Gap=     0.262 Goal=   None    Shift=    0.000
 RMSDP=4.55D-08 MaxDP=1.86D-06 DE=-2.17D-09 OVMax= 8.01D-06

 Cycle  14  Pass 1  IDiag  1:
 E= -323.521531729203     Delta-E=       -0.000000000129 Rises=F Damp=F
 DIIS: error= 3.04D-07 at cycle   7 NSaved=   7.
 NSaved= 7 IEnMin= 7 EnMin= -323.521531729203     IErMin= 7 ErrMin= 3.04D-07
 ErrMax= 3.04D-07  0.00D+00 EMaxC= 1.00D-01 BMatC= 3.35D-11 BMatP= 9.48D-11
 IDIUse=1 WtCom= 1.00D+00 WtEn= 0.00D+00
 Coeff-Com:  0.221D-03-0.207D-02-0.451D-02-0.559D-01-0.341D-01 0.386D+00
 Coeff-Com:  0.710D+00
 Coeff:      0.221D-03-0.207D-02-0.451D-02-0.559D-01-0.341D-01 0.386D+00
 Coeff:      0.710D+00
 Gap=     0.262 Goal=   None    Shift=    0.000
 RMSDP=2.57D-08 MaxDP=1.01D-06 DE=-1.29D-10 OVMax= 3.57D-06

 Cycle  15  Pass 1  IDiag  1:
 E= -323.521531729242     Delta-E=       -0.000000000038 Rises=F Damp=F
 DIIS: error= 1.68D-07 at cycle   8 NSaved=   8.
 NSaved= 8 IEnMin= 8 EnMin= -323.521531729242     IErMin= 8 ErrMin= 1.68D-07
 ErrMax= 1.68D-07  0.00D+00 EMaxC= 1.00D-01 BMatC= 2.94D-12 BMatP= 3.35D-11
 IDIUse=1 WtCom= 1.00D+00 WtEn= 0.00D+00
 Coeff-Com:  0.820D-05 0.183D-02 0.163D-03-0.286D-01-0.396D-01 0.716D-01
 Coeff-Com:  0.271D+00 0.724D+00
 Coeff:      0.820D-05 0.183D-02 0.163D-03-0.286D-01-0.396D-01 0.716D-01
 Coeff:      0.271D+00 0.724D+00
 Gap=     0.262 Goal=   None    Shift=    0.000
 RMSDP=8.89D-09 MaxDP=2.93D-07 DE=-3.82D-11 OVMax= 2.00D-06

 SCF Done:  E(RM062X) =  -323.521531729     A.U. after   15 cycles
            NFock= 15  Conv=0.89D-08     -V/T= 2.0038
 KE= 3.222872772771D+02 PE=-1.308212176292D+03 EE= 3.855647028360D+02
 Leave Link  502 at Fri Aug 27 00:16:57 2021, MaxMem= 17179869184 cpu:       250.7
 (Enter /public3/home/sc51754/softwares/g09e01/l601.exe)
 Copying SCF densities to generalized density rwf, IOpCl= 0 IROHF=0.

 **********************************************************************

            Population analysis using the SCF density.

 **********************************************************************

 Orbital symmetries:
       Occupied  (A') (A') (A') (A') (A') (A') (A') (A') (A') (A')
                 (A') (A') (A') (A') (A') (A') (A') (A") (A') (A')
                 (A') (A") (A") (A') (A")
       Virtual   (A") (A') (A") (A') (A') (A') (A') (A') (A") (A')
                 (A") (A') (A') (A') (A") (A") (A') (A') (A") (A')
                 (A') (A') (A") (A') (A') (A') (A') (A') (A') (A')
                 (A") (A') (A') (A') (A') (A") (A') (A') (A') (A')
                 (A') (A') (A") (A') (A') (A') (A") (A') (A") (A")
                 (A') (A") (A') (A') (A") (A') (A') (A') (A') (A")
                 (A') (A') (A") (A") (A') (A') (A') (A') (A") (A")
                 (A') (A") (A') (A') (A") (A") (A') (A") (A') (A')
                 (A") (A') (A') (A") (A") (A') (A') (A') (A") (A")
                 (A') (A') (A") (A') (A') (A') (A') (A') (A") (A')
                 (A') (A') (A') (A') (A") (A") (A') (A') (A') (A')
                 (A") (A') (A') (A') (A') (A') (A") (A') (A') (A")
                 (A') (A') (A') (A") (A") (A') (A") (A") (A') (A")
                 (A') (A") (A') (A') (A") (A') (A") (A') (A') (A')
                 (A') (A') (A') (A") (A') (A") (A') (A') (A') (A')
                 (A') (A") (A") (A") (A") (A') (A") (A") (A") (A')
                 (A') (A") (A') (A') (A") (A') (A') (A') (A") (A')
                 (A") (A') (A') (A") (A") (A') (A') (A") (A") (A")
                 (A') (A") (A") (A') (A") (A') (A") (A') (A') (A")
                 (A') (A") (A") (A') (A') (A") (A') (A') (A") (A')
                 (A') (A") (A') (A") (A') (A') (A") (A') (A') (A')
                 (A") (A') (A') (A") (A') (A") (A') (A") (A') (A')
                 (A") (A') (A') (A") (A") (A') (A') (A') (A") (A')
                 (A') (A') (A') (A") (A') (A') (A') (A') (A") (A')
                 (A') (A') (A') (A") (A') (A') (A') (A') (A') (A')
                 (A') (A') (A') (A') (A')
 The electronic state is 1-A'.
 Alpha  occ. eigenvalues --  -19.58397 -14.80925 -10.64493 -10.60929 -10.56980
 Alpha  occ. eigenvalues --  -10.55140 -10.54884  -1.16715  -1.07799  -0.93019
 Alpha  occ. eigenvalues --   -0.86391  -0.74844  -0.72901  -0.64748  -0.58782
 Alpha  occ. eigenvalues --   -0.56722  -0.53853  -0.52796  -0.50907  -0.46377
 Alpha  occ. eigenvalues --   -0.44506  -0.42510  -0.37742  -0.33601  -0.28013
 Alpha virt. eigenvalues --   -0.01764   0.02681   0.03915   0.04772   0.06161
 Alpha virt. eigenvalues --    0.08653   0.09355   0.15726   0.16292   0.17189
 Alpha virt. eigenvalues --    0.18365   0.18497   0.20565   0.22047   0.22318
 Alpha virt. eigenvalues --    0.23437   0.25131   0.26287   0.29798   0.30035
 Alpha virt. eigenvalues --    0.30338   0.31815   0.32526   0.32727   0.33873
 Alpha virt. eigenvalues --    0.35938   0.38063   0.39345   0.41473   0.43500
 Alpha virt. eigenvalues --    0.44033   0.45032   0.48242   0.49842   0.51842
 Alpha virt. eigenvalues --    0.52218   0.54530   0.55412   0.57961   0.62679
 Alpha virt. eigenvalues --    0.65248   0.65843   0.67808   0.68516   0.70757
 Alpha virt. eigenvalues --    0.73747   0.79640   0.80096   0.82616   0.84344
 Alpha virt. eigenvalues --    0.84926   0.87894   0.94066   0.95526   0.96421
 Alpha virt. eigenvalues --    0.98679   1.00391   1.02368   1.04375   1.10432
 Alpha virt. eigenvalues --    1.11135   1.13437   1.15523   1.17193   1.17597
 Alpha virt. eigenvalues --    1.18429   1.21025   1.23004   1.23583   1.28284
 Alpha virt. eigenvalues --    1.28756   1.30855   1.30860   1.32793   1.33230
 Alpha virt. eigenvalues --    1.39601   1.42486   1.44657   1.45001   1.47450
 Alpha virt. eigenvalues --    1.48781   1.50457   1.51848   1.54823   1.58631
 Alpha virt. eigenvalues --    1.59183   1.61954   1.65270   1.69152   1.69657
 Alpha virt. eigenvalues --    1.69667   1.70905   1.75137   1.75418   1.78584
 Alpha virt. eigenvalues --    1.82723   1.83034   1.88922   1.89612   1.92419
 Alpha virt. eigenvalues --    1.95727   1.99260   2.03791   2.05354   2.05524
 Alpha virt. eigenvalues --    2.10941   2.11444   2.17979   2.18670   2.24682
 Alpha virt. eigenvalues --    2.26511   2.27896   2.30385   2.31031   2.34301
 Alpha virt. eigenvalues --    2.42419   2.57519   2.64884   2.67581   2.87290
 Alpha virt. eigenvalues --    2.90727   2.94368   2.95564   2.97059   3.18362
 Alpha virt. eigenvalues --    3.18672   3.20720   3.23754   3.25720   3.25728
 Alpha virt. eigenvalues --    3.28341   3.31329   3.34001   3.35621   3.38753
 Alpha virt. eigenvalues --    3.42129   3.48581   3.48775   3.53586   3.55606
 Alpha virt. eigenvalues --    3.58303   3.62412   3.66223   3.67179   3.67621
 Alpha virt. eigenvalues --    3.70190   3.70614   3.77121   3.84445   3.86623
 Alpha virt. eigenvalues --    3.90142   3.91324   3.92375   3.95288   3.95780
 Alpha virt. eigenvalues --    3.99856   4.00065   4.02549   4.05672   4.06107
 Alpha virt. eigenvalues --    4.07861   4.08749   4.11103   4.13402   4.15656
 Alpha virt. eigenvalues --    4.17214   4.18195   4.19609   4.21510   4.23060
 Alpha virt. eigenvalues --    4.23915   4.25010   4.26050   4.27060   4.29020
 Alpha virt. eigenvalues --    4.29354   4.30088   4.30449   4.31565   4.36600
 Alpha virt. eigenvalues --    4.39408   4.41137   4.43431   4.43447   4.44626
 Alpha virt. eigenvalues --    4.46428   4.47597   4.48116   4.53213   4.53637
 Alpha virt. eigenvalues --    4.54908   4.54971   4.57312   4.57317   4.64271
 Alpha virt. eigenvalues --    4.68503   4.69449   4.71659   4.79336   4.81057
 Alpha virt. eigenvalues --    4.83563   4.87074   4.87333   4.92261   4.93489
 Alpha virt. eigenvalues --    4.96411   5.04481   5.05982   5.10917   5.12937
 Alpha virt. eigenvalues --    5.17718   5.18858   5.24826   5.25131   5.28902
 Alpha virt. eigenvalues --    5.29285   5.33293   5.35276   5.35278   5.40156
 Alpha virt. eigenvalues --    5.43976   5.47841   5.49357   5.52756   5.55093
 Alpha virt. eigenvalues --    5.56386   5.63845   5.65523   5.66716   5.72573
 Alpha virt. eigenvalues --    5.76816   5.84593   5.91094   5.91920   6.00320
 Alpha virt. eigenvalues --    6.00603   6.04483   6.16901   6.17787   6.21531
 Alpha virt. eigenvalues --    6.30227   6.43163   6.49215   6.51818   6.74572
 Alpha virt. eigenvalues --    6.92242   6.94716   7.13524   9.45546  12.19999
 Alpha virt. eigenvalues --   13.07088  14.56733  17.70985  18.18996  22.67285
          Condensed to atoms (all electrons):
               1          2          3          4          5          6
     1  O    8.062043  -0.116493   0.591253  -0.051986   0.007534   0.005829
     2  N   -0.116493   6.514677   0.355722  -0.053298   0.349562  -0.017542
     3  C    0.591253   0.355722   4.244708   0.429313  -0.037321  -0.039895
     4  C   -0.051986  -0.053298   0.429313   4.955287  -0.033949   0.558090
     5  C    0.007534   0.349562  -0.037321  -0.033949   4.512567  -0.094423
     6  C    0.005829  -0.017542  -0.039895   0.558090  -0.094423   4.680724
     7  C    0.001754  -0.052135  -0.022650  -0.079306   0.639172   0.446832
     8  H    0.011010   0.402678  -0.026713   0.011800  -0.025106  -0.003552
     9  H    0.003180   0.005162  -0.037996   0.450738  -0.000209  -0.037019
    10  H   -0.000855  -0.039357   0.001905  -0.004231   0.426567   0.007710
    11  H   -0.000453  -0.002204   0.005902  -0.031731   0.008398   0.428958
    12  H    0.000023   0.006383  -0.000468   0.005209  -0.030988  -0.031478
               7          8          9         10         11         12
     1  O    0.001754   0.011010   0.003180  -0.000855  -0.000453   0.000023
     2  N   -0.052135   0.402678   0.005162  -0.039357  -0.002204   0.006383
     3  C   -0.022650  -0.026713  -0.037996   0.001905   0.005902  -0.000468
     4  C   -0.079306   0.011800   0.450738  -0.004231  -0.031731   0.005209
     5  C    0.639172  -0.025106  -0.000209   0.426567   0.008398  -0.030988
     6  C    0.446832  -0.003552  -0.037019   0.007710   0.428958  -0.031478
     7  C    4.848643   0.006990   0.006285  -0.036915  -0.041385   0.443183
     8  H    0.006990   0.487000  -0.000359  -0.010782   0.000256  -0.000329
     9  H    0.006285  -0.000359   0.587586   0.000245  -0.009078  -0.000011
    10  H   -0.036915  -0.010782   0.000245   0.619835  -0.000323  -0.005213
    11  H   -0.041385   0.000256  -0.009078  -0.000323   0.615730  -0.007924
    12  H    0.443183  -0.000329  -0.000011  -0.005213  -0.007924   0.603275
 Mulliken charges:
               1
     1  O   -0.512839
     2  N   -0.353156
     3  C    0.536240
     4  C   -0.155936
     5  C    0.278197
     6  C    0.095766
     7  C   -0.160467
     8  H    0.147109
     9  H    0.031478
    10  H    0.041415
    11  H    0.033854
    12  H    0.018339
 Sum of Mulliken charges =  -0.00000
 Mulliken charges with hydrogens summed into heavy atoms:
               1
     1  O   -0.512839
     2  N   -0.206047
     3  C    0.536240
     4  C   -0.124458
     5  C    0.319611
     6  C    0.129620
     7  C   -0.142128
 Electronic spatial extent (au):  <R**2>=            625.9024
 Charge=             -0.0000 electrons
 Dipole moment (field-independent basis, Debye):
    X=             -1.1937    Y=             -4.2152    Z=             -0.0000  Tot=              4.3809
 Quadrupole moment (field-independent basis, Debye-Ang):
   XX=            -31.4055   YY=            -47.7930   ZZ=            -43.2311
   XY=              0.1608   XZ=              0.0000   YZ=             -0.0000
 Traceless Quadrupole moment (field-independent basis, Debye-Ang):
   XX=              9.4044   YY=             -6.9832   ZZ=             -2.4212
   XY=              0.1608   XZ=              0.0000   YZ=             -0.0000
 Octapole moment (field-independent basis, Debye-Ang**2):
  XXX=            -11.5301  YYY=            -30.4450  ZZZ=              0.0000  XYY=              0.0013
  XXY=              0.9864  XXZ=              0.0000  XZZ=             -2.1397  YZZ=              5.4733
  YYZ=             -0.0000  XYZ=              0.0000
 Hexadecapole moment (field-independent basis, Debye-Ang**3):
 XXXX=           -235.2099 YYYY=           -538.8195 ZZZZ=            -46.9432 XXXY=              2.4718
 XXXZ=              0.0000 YYYX=              7.5896 YYYZ=             -0.0000 ZZZX=              0.0000
 ZZZY=             -0.0000 XXYY=           -115.7569 XXZZ=            -60.8528 YYZZ=            -96.2474
 XXYZ=             -0.0000 YYXZ=              0.0000 ZZXY=              1.1957
 N-N= 2.768386644497D+02 E-N=-1.308212173017D+03  KE= 3.222872772771D+02
 Symmetry A'   KE= 3.109964781073D+02
 Symmetry A"   KE= 1.129079916982D+01
 No NMR shielding tensors so no spin-rotation constants.
 Leave Link  601 at Fri Aug 27 00:16:58 2021, MaxMem= 17179869184 cpu:        74.5
 (Enter /public3/home/sc51754/softwares/g09e01/l701.exe)
 Compute integral first derivatives.
 ... and contract with generalized density number  0.
 Leave Link  701 at Fri Aug 27 00:17:00 2021, MaxMem= 17179869184 cpu:        81.7
 (Enter /public3/home/sc51754/softwares/g09e01/l702.exe)
 L702 exits ... SP integral derivatives will be done elsewhere.
 Leave Link  702 at Fri Aug 27 00:17:00 2021, MaxMem= 17179869184 cpu:         0.2
 (Enter /public3/home/sc51754/softwares/g09e01/l703.exe)
 Compute integral first derivatives, UseDBF=F ICtDFT=           0.
 Integral derivatives from FoFJK, PRISM(SPDF).
 Calling FoFJK, ICntrl=      2127 FMM=F ISym2X=1 I1Cent= 0 IOpClX= 0 NMat=1 NMatS=1 NMatT=0.
 FoFJK:  IHMeth= 1 ICntrl=    2127 DoSepK=F KAlg= 0 I1Cent=   0 FoldK=F
 IRaf=         0 NMat=   1 IRICut=       1 DoRegI=T DoRafI=F ISym2E= 1.
 FoFCou: FMM=F IPFlag=           0 FMFlag=      100000 FMFlg1=         800
         NFxFlg=           0 DoJE=F BraDBF=F KetDBF=F FulRan=T
         wScrn=  0.000000 ICntrl=    2127 IOpCl=  0 I1Cent=           0 NGrid=           0
         NMat0=    1 NMatS0=      1 NMatT0=    0 NMatD0=    1 NMtDS0=    0 NMtDT0=    0
 Petite list used in FoFCou.
 Leave Link  703 at Fri Aug 27 00:17:02 2021, MaxMem= 17179869184 cpu:       142.7
 (Enter /public3/home/sc51754/softwares/g09e01/l716.exe)
 Dipole        =-4.69625342D-01-1.65837524D+00-4.36672400D-32
 ***** Axes restored to original set *****
 -------------------------------------------------------------------
 Center     Atomic                   Forces (Hartrees/Bohr)
 Number     Number              X              Y              Z
 -------------------------------------------------------------------
      1        8          -0.000422160    0.003987491   -0.000000000
      2        7           0.000951231    0.002620717   -0.000000000
      3        6          -0.004301138   -0.003970849   -0.000000000
      4        6           0.005040798    0.000973708    0.000000000
      5        6          -0.001536180   -0.000936715   -0.000000000
      6        6           0.003404830    0.000487049    0.000000000
      7        6          -0.001670358   -0.004345240    0.000000000
      8        1          -0.000894596    0.000164076   -0.000000000
      9        1          -0.000455505   -0.000408536   -0.000000000
     10        1           0.000343546    0.000655518   -0.000000000
     11        1          -0.000342662    0.000224253   -0.000000000
     12        1          -0.000117807    0.000548528   -0.000000000
 -------------------------------------------------------------------
 Cartesian Forces:  Max     0.005040798 RMS     0.001851777
 Leave Link  716 at Fri Aug 27 00:17:02 2021, MaxMem= 17179869184 cpu:         0.3
 (Enter /public3/home/sc51754/softwares/g09e01/l103.exe)

 GradGradGradGradGradGradGradGradGradGradGradGradGradGradGradGradGradGrad
 Berny optimization.
 FormGI is forming the generalized inverse of G from B-inverse, IUseBI=4.
 Internal  Forces:  Max     0.004237732 RMS     0.001131758
 Search for a local minimum.
 Step number   1 out of a maximum of   64
 All quantities printed in internal units (Hartrees-Bohrs-Radians)
 RMS Force = .11318D-02 SwitMx=.10000D-02 MixMth= 1
 Mixed Optimization -- RFO/linear search
 Second derivative matrix not updated -- first step.
 ITU=  0
     Eigenvalues ---    0.01577   0.01761   0.01972   0.02080   0.02183
     Eigenvalues ---    0.02246   0.02365   0.02483   0.02557   0.16000
     Eigenvalues ---    0.16000   0.16000   0.16000   0.16000   0.22000
     Eigenvalues ---    0.22000   0.23415   0.25000   0.35622   0.35864
     Eigenvalues ---    0.35940   0.36221   0.37867   0.40757   0.44267
     Eigenvalues ---    0.46319   0.50118   0.53776   0.54239   0.98595
 RFO step:  Lambda=-1.48319620D-04 EMin= 1.57720798D-02
 Linear search not attempted -- first point.
 Iteration  1 RMS(Cart)=  0.00320766 RMS(Int)=  0.00000453
 Iteration  2 RMS(Cart)=  0.00000448 RMS(Int)=  0.00000150
 Iteration  3 RMS(Cart)=  0.00000000 RMS(Int)=  0.00000150
 ITry= 1 IFail=0 DXMaxC= 9.39D-03 DCOld= 1.00D+10 DXMaxT= 3.00D-01 DXLimC= 3.00D+00 Rises=F
 ClnCor:  largest displacement from symmetrization is 2.72D-12 for atom    11.
 Variable       Old X    -DE/DX   Delta X   Delta X   Delta X     New X
                                 (Linear)    (Quad)   (Total)
    R1        2.29207   0.00401   0.00000   0.00407   0.00407   2.29613
    R2        2.65138  -0.00106   0.00000  -0.00267  -0.00267   2.64870
    R3        2.56109   0.00165   0.00000   0.00283   0.00283   2.56392
    R4        1.90473   0.00086   0.00000   0.00185   0.00185   1.90658
    R5        2.72731   0.00424   0.00000   0.01079   0.01079   2.73810
    R6        2.55600   0.00172   0.00000   0.00338   0.00338   2.55938
    R7        2.04176  -0.00060   0.00000  -0.00168  -0.00168   2.04008
    R8        2.55244   0.00208   0.00000   0.00381   0.00381   2.55625
    R9        2.04295  -0.00060   0.00000  -0.00168  -0.00168   2.04126
   R10        2.67947   0.00418   0.00000   0.01009   0.01009   2.68956
   R11        2.04676  -0.00041   0.00000  -0.00115  -0.00115   2.04562
   R12        2.03737  -0.00055   0.00000  -0.00152  -0.00152   2.03585
    A1        2.18960   0.00005   0.00000  -0.00084  -0.00084   2.18876
    A2        1.99125   0.00025   0.00000   0.00211   0.00211   1.99337
    A3        2.10233  -0.00030   0.00000  -0.00128  -0.00127   2.10106
    A4        2.09504  -0.00050   0.00000  -0.00171  -0.00171   2.09334
    A5        2.21834  -0.00056   0.00000  -0.00195  -0.00195   2.21639
    A6        1.96981   0.00107   0.00000   0.00366   0.00366   1.97346
    A7        2.12410  -0.00095   0.00000  -0.00375  -0.00375   2.12035
    A8        2.02595   0.00059   0.00000   0.00259   0.00258   2.02854
    A9        2.13313   0.00036   0.00000   0.00116   0.00116   2.13430
   A10        2.10267   0.00057   0.00000   0.00221   0.00221   2.10487
   A11        2.03035  -0.00074   0.00000  -0.00394  -0.00394   2.02641
   A12        2.15017   0.00017   0.00000   0.00173   0.00173   2.15190
   A13        2.12246  -0.00022   0.00000   0.00026   0.00027   2.12272
   A14        2.08387   0.00009   0.00000  -0.00023  -0.00023   2.08364
   A15        2.07686   0.00012   0.00000  -0.00003  -0.00003   2.07682
   A16        2.05775  -0.00051   0.00000  -0.00154  -0.00154   2.05620
   A17        2.10204   0.00013   0.00000  -0.00004  -0.00004   2.10200
   A18        2.12340   0.00039   0.00000   0.00159   0.00159   2.12498
    D1        3.14159  -0.00000   0.00000  -0.00000   0.00000   3.14159
    D2       -0.00000  -0.00000   0.00000  -0.00000   0.00000   0.00000
    D3        0.00000  -0.00000   0.00000  -0.00000  -0.00000   0.00000
    D4        3.14159   0.00000   0.00000  -0.00000   0.00000   3.14159
    D5        0.00000  -0.00000   0.00000   0.00000   0.00000   0.00000
    D6        3.14159   0.00000   0.00000   0.00000   0.00000   3.14159
    D7        3.14159  -0.00000   0.00000  -0.00000   0.00000   3.14159
    D8       -0.00000   0.00000   0.00000  -0.00000   0.00000   0.00000
    D9        3.14159   0.00000   0.00000   0.00000   0.00000   3.14159
   D10        0.00000   0.00000   0.00000   0.00000  -0.00000   0.00000
   D11        0.00000   0.00000   0.00000   0.00000  -0.00000   0.00000
   D12        3.14159   0.00000   0.00000   0.00000   0.00000   3.14159
   D13        0.00000  -0.00000   0.00000  -0.00000   0.00000   0.00000
   D14        3.14159  -0.00000   0.00000   0.00000   0.00000   3.14159
   D15        3.14159  -0.00000   0.00000  -0.00000   0.00000   3.14159
   D16       -0.00000   0.00000   0.00000   0.00000   0.00000   0.00000
   D17       -0.00000   0.00000   0.00000   0.00000   0.00000   0.00000
   D18        3.14159  -0.00000   0.00000  -0.00000   0.00000   3.14159
   D19        3.14159  -0.00000   0.00000   0.00000   0.00000   3.14159
   D20       -0.00000  -0.00000   0.00000  -0.00000   0.00000   0.00000
   D21        0.00000   0.00000   0.00000   0.00000  -0.00000   0.00000
   D22        3.14159   0.00000   0.00000   0.00000   0.00000   3.14159
   D23        3.14159  -0.00000   0.00000  -0.00000   0.00000   3.14159
   D24        0.00000  -0.00000   0.00000  -0.00000   0.00000   0.00000
         Item               Value     Threshold  Converged?
 Maximum Force            0.004238     0.000450     NO 
 RMS     Force            0.001132     0.000300     NO 
 Maximum Displacement     0.009386     0.001800     NO 
 RMS     Displacement     0.003206     0.001200     NO 
 Predicted change in Energy=-7.418088D-05
 Lowest energy point so far.  Saving SCF results.
 GradGradGradGradGradGradGradGradGradGradGradGradGradGradGradGradGradGrad

 Leave Link  103 at Fri Aug 27 00:17:03 2021, MaxMem= 17179869184 cpu:        46.9
 (Enter /public3/home/sc51754/softwares/g09e01/l202.exe)
                          Input orientation:                          
 ---------------------------------------------------------------------
 Center     Atomic      Atomic             Coordinates (Angstroms)
 Number     Number       Type             X           Y           Z
 ---------------------------------------------------------------------
      1          8           0       -0.134450    2.269684   -0.000000
      2          7           0       -1.133680    0.234386   -0.000000
      3          6           0       -0.002345    1.061825   -0.000000
      4          6           0        1.242912    0.321039    0.000000
      5          6           0       -1.115337   -1.122258   -0.000000
      6          6           0        1.260389   -1.033213    0.000000
      7          6           0        0.058195   -1.795044    0.000000
      8          1           0       -2.010868    0.732845   -0.000000
      9          1           0        2.148046    0.909415    0.000000
     10          1           0       -2.078822   -1.610632   -0.000000
     11          1           0        2.210399   -1.552129    0.000000
     12          1           0        0.069664   -2.872310    0.000000
 ---------------------------------------------------------------------
                    Distance matrix (angstroms):
                    1          2          3          4          5
     1  O    0.000000
     2  N    2.267355   0.000000
     3  C    1.215062   1.401633   0.000000
     4  C    2.386282   2.378171   1.448940   0.000000
     5  C    3.530922   1.356768   2.451320   2.764858   0.000000
     6  C    3.585346   2.708943   2.446156   1.354364   2.377394
     7  C    4.069291   2.353541   2.857510   2.425152   1.352708
     8  H    2.425452   1.008920   2.035287   3.279736   2.059947
     9  H    2.657089   3.350432   2.155785   1.079562   3.844134
    10  H    4.340211   2.073013   3.384343   3.842559   1.080190
    11  H    4.483812   3.791372   3.424761   2.108267   3.353403
    12  H    5.146043   3.331606   3.934793   3.402056   2.113506
                    6          7          8          9         10
     6  C    0.000000
     7  C    1.423255   0.000000
     8  H    3.717537   3.266687   0.000000
     9  H    2.135823   3.417832   4.162661   0.000000
    10  H    3.388766   2.144959   2.344462   4.921082   0.000000
    11  H    1.082494   2.165870   4.800021   2.462333   4.289620
    12  H    2.190913   1.077327   4.162422   4.315219   2.491550
                   11         12
    11  H    0.000000
    12  H    2.515079   0.000000
 Stoichiometry    C5H5NO
 Framework group  CS[SG(C5H5NO)]
 Deg. of freedom    21
 Full point group                 CS      NOp   2
 RotChk:  IX=0 Diff= 2.86D-03
 Largest Abelian subgroup         CS      NOp   2
 Largest concise Abelian subgroup C1      NOp   1
                         Standard orientation:                         
 ---------------------------------------------------------------------
 Center     Atomic      Atomic             Coordinates (Angstroms)
 Number     Number       Type             X           Y           Z
 ---------------------------------------------------------------------
      1          8           0       -0.129666    2.269961   -0.000000
      2          7           0       -1.133004    0.236685   -0.000000
      3          6           0       -0.000000    1.061838   -0.000000
      4          6           0        1.243758    0.318539   -0.000000
      5          6           0       -1.117399   -1.119993    0.000000
      6          6           0        1.258501   -1.035745    0.000000
      7          6           0        0.054772   -1.795148    0.000000
      8          1           0       -2.009183    0.736914   -0.000000
      9          1           0        2.150079    0.905087   -0.000000
     10          1           0       -2.081868   -1.606421    0.000000
     11          1           0        2.207463   -1.556578    0.000000
     12          1           0        0.064066   -2.872434    0.000000
 ---------------------------------------------------------------------
 Rotational constants (GHZ):      5.7084810      2.8172245      1.8863040
 Leave Link  202 at Fri Aug 27 00:17:03 2021, MaxMem= 17179869184 cpu:         3.6
 (Enter /public3/home/sc51754/softwares/g09e01/l301.exe)
 Basis read from rwf:  (5D, 7F)
 No pseudopotential information found on rwf file.
 There are   223 symmetry adapted cartesian basis functions of A'  symmetry.
 There are    97 symmetry adapted cartesian basis functions of A"  symmetry.
 There are   190 symmetry adapted basis functions of A'  symmetry.
 There are    90 symmetry adapted basis functions of A"  symmetry.
   280 basis functions,   475 primitive gaussians,   320 cartesian basis functions
    25 alpha electrons       25 beta electrons
       nuclear repulsion energy       276.4421438854 Hartrees.
 IExCor= 4336 DFT=T Ex+Corr=M062X ExCW=0 ScaHFX=  0.540000
 ScaDFX=  1.000000  1.000000  1.000000  1.000000 ScalE2=  1.000000  1.000000
 IRadAn=      0 IRanWt=     -1 IRanGd=            0 ICorTp=0 IEmpDi=  4
 NAtoms=   12 NActive=   12 NUniq=   12 SFac= 1.00D+00 NAtFMM=   60 NAOKFM=F Big=F
 Integral buffers will be    131072 words long.
 Raffenetti 2 integral format.
 Two-electron integral symmetry is turned on.
 No density basis found on file   724.
 Leave Link  301 at Fri Aug 27 00:17:03 2021, MaxMem= 17179869184 cpu:         0.9
 (Enter /public3/home/sc51754/softwares/g09e01/l302.exe)
 NPDir=0 NMtPBC=     1 NCelOv=     1 NCel=       1 NClECP=     1 NCelD=      1
         NCelK=      1 NCelE2=     1 NClLst=     1 CellRange=     0.0.
 One-electron integrals computed using PRISM.
 NBasis=   280 RedAO= T EigKep=  2.32D-04  NBF=   190    90
 NBsUse=   280 1.00D-06 EigRej= -1.00D+00 NBFU=   190    90
 Precomputing XC quadrature grid using
 IXCGrd= 4 IRadAn=           0 IRanWt=          -1 IRanGd=           0 AccXCQ= 0.00D+00.
 Generated NRdTot=       0 NPtTot=           0 NUsed=           0 NTot=          32
 NSgBfM=   320   320   320   320   320 MxSgAt=    12 MxSgA2=    12.
 Leave Link  302 at Fri Aug 27 00:17:04 2021, MaxMem= 17179869184 cpu:        39.0
 (Enter /public3/home/sc51754/softwares/g09e01/l303.exe)
 DipDrv:  MaxL=1.
 Leave Link  303 at Fri Aug 27 00:17:05 2021, MaxMem= 17179869184 cpu:        10.2
 (Enter /public3/home/sc51754/softwares/g09e01/l401.exe)
 Initial guess from the checkpoint file:  "PY_M062X_PC2_OPT_FREQ.chk"
 B after Tr=     0.000000   -0.000000    0.000000
         Rot=    1.000000   -0.000000    0.000000    0.000748 Ang=   0.09 deg.
 Guess basis will be translated and rotated to current coordinates.
 JPrj=2 DoOrth=T DoCkMO=T.
 Initial guess orbital symmetries:
       Occupied  (A') (A') (A') (A') (A') (A') (A') (A') (A') (A')
                 (A') (A') (A') (A') (A') (A') (A') (A") (A') (A')
                 (A') (A") (A") (A') (A")
       Virtual   (A') (A') (A') (A') (A') (A') (A') (A') (A') (A')
                 (A') (A') (A') (A') (A') (A') (A') (A') (A') (A')
                 (A') (A') (A') (A') (A') (A') (A') (A') (A') (A')
                 (A') (A') (A') (A') (A') (A') (A') (A') (A') (A')
                 (A') (A') (A') (A') (A') (A') (A') (A') (A') (A')
                 (A') (A') (A') (A') (A') (A') (A') (A') (A') (A')
                 (A') (A') (A') (A') (A') (A') (A') (A') (A') (A')
                 (A') (A') (A') (A') (A') (A') (A') (A') (A') (A')
                 (A') (A') (A') (A') (A') (A') (A') (A') (A') (A')
                 (A') (A') (A') (A') (A') (A') (A') (A') (A') (A')
                 (A') (A') (A') (A') (A') (A') (A') (A') (A') (A')
                 (A') (A') (A') (A') (A') (A') (A') (A') (A') (A')
                 (A') (A') (A') (A') (A') (A') (A') (A') (A') (A')
                 (A') (A') (A') (A') (A') (A') (A') (A') (A') (A')
                 (A') (A') (A') (A') (A') (A') (A') (A') (A') (A')
                 (A') (A') (A') (A') (A') (A') (A') (A') (A') (A')
                 (A') (A') (A') (A') (A') (A') (A') (A') (A') (A")
                 (A") (A") (A") (A") (A") (A") (A") (A") (A") (A")
                 (A") (A") (A") (A") (A") (A") (A") (A") (A") (A")
                 (A") (A") (A") (A") (A") (A") (A") (A") (A") (A")
                 (A") (A") (A") (A") (A") (A") (A") (A") (A") (A")
                 (A") (A") (A") (A") (A") (A") (A") (A") (A") (A")
                 (A") (A") (A") (A") (A") (A") (A") (A") (A") (A")
                 (A") (A") (A") (A") (A") (A") (A") (A") (A") (A")
                 (A") (A") (A") (A") (A") (A") (A") (A") (A") (A")
                 (A") (A") (A") (A") (A")
 The electronic state of the initial guess is 1-A'.
 Leave Link  401 at Fri Aug 27 00:17:05 2021, MaxMem= 17179869184 cpu:        38.0
 (Enter /public3/home/sc51754/softwares/g09e01/l502.exe)
 Closed shell SCF:
 Using DIIS extrapolation, IDIIS=  1040.
 Integral symmetry usage will be decided dynamically.
 Keep R1 ints in memory in symmetry-blocked form, NReq=1167802198.
 IVT=      348658 IEndB=      348658 NGot= 17179869184 MDV= 16785904737
 LenX= 16785904737 LenY= 16785801896
 Requested convergence on RMS density matrix=1.00D-08 within 128 cycles.
 Requested convergence on MAX density matrix=1.00D-06.
 Requested convergence on             energy=1.00D-06.
 No special actions if energy rises.
 FoFCou: FMM=F IPFlag=           0 FMFlag=           0 FMFlg1=           0
         NFxFlg=           0 DoJE=F BraDBF=F KetDBF=F FulRan=T
         wScrn=  0.000000 ICntrl=     600 IOpCl=  0 I1Cent=           0 NGrid=           0
         NMat0=    1 NMatS0=  39340 NMatT0=    0 NMatD0=    1 NMtDS0=    0 NMtDT0=    0
 Petite list used in FoFCou.

 Cycle   1  Pass 1  IDiag  1:
 E= -323.521581080567    
 DIIS: error= 2.18D-04 at cycle   1 NSaved=   1.
 NSaved= 1 IEnMin= 1 EnMin= -323.521581080567     IErMin= 1 ErrMin= 2.18D-04
 ErrMax= 2.18D-04  0.00D+00 EMaxC= 1.00D-01 BMatC= 2.61D-05 BMatP= 2.61D-05
 IDIUse=3 WtCom= 9.98D-01 WtEn= 2.18D-03
 Coeff-Com:  0.100D+01
 Coeff-En:   0.100D+01
 Coeff:      0.100D+01
 Gap=     0.649 Goal=   None    Shift=    0.000
 RMSDP=2.00D-05 MaxDP=4.91D-04              OVMax= 1.45D-03

 Cycle   2  Pass 1  IDiag  1:
 E= -323.521606998035     Delta-E=       -0.000025917468 Rises=F Damp=F
 DIIS: error= 8.04D-05 at cycle   2 NSaved=   2.
 NSaved= 2 IEnMin= 2 EnMin= -323.521606998035     IErMin= 2 ErrMin= 8.04D-05
 ErrMax= 8.04D-05  0.00D+00 EMaxC= 1.00D-01 BMatC= 2.94D-06 BMatP= 2.61D-05
 IDIUse=1 WtCom= 1.00D+00 WtEn= 0.00D+00
 Coeff-Com:  0.135D+00 0.865D+00
 Coeff:      0.135D+00 0.865D+00
 Gap=     0.262 Goal=   None    Shift=    0.000
 RMSDP=8.10D-06 MaxDP=3.57D-04 DE=-2.59D-05 OVMax= 6.26D-04

 Cycle   3  Pass 1  IDiag  1:
 E= -323.521608676818     Delta-E=       -0.000001678784 Rises=F Damp=F
 DIIS: error= 8.40D-05 at cycle   3 NSaved=   3.
 NSaved= 3 IEnMin= 3 EnMin= -323.521608676818     IErMin= 2 ErrMin= 8.04D-05
 ErrMax= 8.40D-05  0.00D+00 EMaxC= 1.00D-01 BMatC= 1.32D-06 BMatP= 2.94D-06
 IDIUse=1 WtCom= 1.00D+00 WtEn= 0.00D+00
 Coeff-Com: -0.281D-01 0.387D+00 0.641D+00
 Coeff:     -0.281D-01 0.387D+00 0.641D+00
 Gap=     0.262 Goal=   None    Shift=    0.000
 RMSDP=3.75D-06 MaxDP=1.45D-04 DE=-1.68D-06 OVMax= 6.85D-04

 Cycle   4  Pass 1  IDiag  1:
 E= -323.521609914090     Delta-E=       -0.000001237272 Rises=F Damp=F
 DIIS: error= 2.47D-05 at cycle   4 NSaved=   4.
 NSaved= 4 IEnMin= 4 EnMin= -323.521609914090     IErMin= 4 ErrMin= 2.47D-05
 ErrMax= 2.47D-05  0.00D+00 EMaxC= 1.00D-01 BMatC= 1.70D-07 BMatP= 1.32D-06
 IDIUse=1 WtCom= 1.00D+00 WtEn= 0.00D+00
 Coeff-Com: -0.221D-01 0.104D+00 0.326D+00 0.593D+00
 Coeff:     -0.221D-01 0.104D+00 0.326D+00 0.593D+00
 Gap=     0.262 Goal=   None    Shift=    0.000
 RMSDP=1.13D-06 MaxDP=6.14D-05 DE=-1.24D-06 OVMax= 1.15D-04

 Cycle   5  Pass 1  IDiag  1:
 E= -323.521610071102     Delta-E=       -0.000000157012 Rises=F Damp=F
 DIIS: error= 7.38D-06 at cycle   5 NSaved=   5.
 NSaved= 5 IEnMin= 5 EnMin= -323.521610071102     IErMin= 5 ErrMin= 7.38D-06
 ErrMax= 7.38D-06  0.00D+00 EMaxC= 1.00D-01 BMatC= 1.23D-08 BMatP= 1.70D-07
 IDIUse=1 WtCom= 1.00D+00 WtEn= 0.00D+00
 Coeff-Com: -0.407D-02-0.215D-01 0.505D-01 0.215D+00 0.760D+00
 Coeff:     -0.407D-02-0.215D-01 0.505D-01 0.215D+00 0.760D+00
 Gap=     0.262 Goal=   None    Shift=    0.000
 RMSDP=5.02D-07 MaxDP=1.48D-05 DE=-1.57D-07 OVMax= 8.47D-05

 Cycle   6  Pass 1  IDiag  1:
 E= -323.521610090302     Delta-E=       -0.000000019200 Rises=F Damp=F
 DIIS: error= 2.64D-06 at cycle   6 NSaved=   6.
 NSaved= 6 IEnMin= 6 EnMin= -323.521610090302     IErMin= 6 ErrMin= 2.64D-06
 ErrMax= 2.64D-06  0.00D+00 EMaxC= 1.00D-01 BMatC= 2.70D-09 BMatP= 1.23D-08
 IDIUse=1 WtCom= 1.00D+00 WtEn= 0.00D+00
 Coeff-Com:  0.538D-03-0.215D-01-0.781D-02 0.854D-02 0.327D+00 0.693D+00
 Coeff:      0.538D-03-0.215D-01-0.781D-02 0.854D-02 0.327D+00 0.693D+00
 Gap=     0.262 Goal=   None    Shift=    0.000
 RMSDP=2.34D-07 MaxDP=7.87D-06 DE=-1.92D-08 OVMax= 3.96D-05

 Cycle   7  Pass 1  IDiag  1:
 E= -323.521610093755     Delta-E=       -0.000000003453 Rises=F Damp=F
 DIIS: error= 1.88D-06 at cycle   7 NSaved=   7.
 NSaved= 7 IEnMin= 7 EnMin= -323.521610093755     IErMin= 7 ErrMin= 1.88D-06
 ErrMax= 1.88D-06  0.00D+00 EMaxC= 1.00D-01 BMatC= 7.16D-10 BMatP= 2.70D-09
 IDIUse=1 WtCom= 1.00D+00 WtEn= 0.00D+00
 Coeff-Com:  0.128D-02-0.586D-02-0.156D-01-0.671D-01-0.171D-01 0.359D+00
 Coeff-Com:  0.745D+00
 Coeff:      0.128D-02-0.586D-02-0.156D-01-0.671D-01-0.171D-01 0.359D+00
 Coeff:      0.745D+00
 Gap=     0.262 Goal=   None    Shift=    0.000
 RMSDP=1.31D-07 MaxDP=4.08D-06 DE=-3.45D-09 OVMax= 2.36D-05

 Cycle   8  Pass 1  IDiag  1:
 E= -323.521610094875     Delta-E=       -0.000000001121 Rises=F Damp=F
 DIIS: error= 3.19D-07 at cycle   8 NSaved=   8.
 NSaved= 8 IEnMin= 8 EnMin= -323.521610094875     IErMin= 8 ErrMin= 3.19D-07
 ErrMax= 3.19D-07  0.00D+00 EMaxC= 1.00D-01 BMatC= 3.78D-11 BMatP= 7.16D-10
 IDIUse=1 WtCom= 1.00D+00 WtEn= 0.00D+00
 Coeff-Com:  0.690D-04 0.244D-02 0.105D-03-0.182D-01-0.419D-01-0.434D-01
 Coeff-Com:  0.111D+00 0.990D+00
 Coeff:      0.690D-04 0.244D-02 0.105D-03-0.182D-01-0.419D-01-0.434D-01
 Coeff:      0.111D+00 0.990D+00
 Gap=     0.262 Goal=   None    Shift=    0.000
 RMSDP=5.03D-08 MaxDP=1.35D-06 DE=-1.12D-09 OVMax= 8.01D-06

 Cycle   9  Pass 1  IDiag  1:
 E= -323.521610094949     Delta-E=       -0.000000000073 Rises=F Damp=F
 DIIS: error= 1.54D-07 at cycle   9 NSaved=   9.
 NSaved= 9 IEnMin= 9 EnMin= -323.521610094949     IErMin= 9 ErrMin= 1.54D-07
 ErrMax= 1.54D-07  0.00D+00 EMaxC= 1.00D-01 BMatC= 4.22D-12 BMatP= 3.78D-11
 IDIUse=1 WtCom= 1.00D+00 WtEn= 0.00D+00
 Coeff-Com: -0.267D-04 0.127D-02 0.971D-03-0.515D-02-0.150D-01-0.318D-01
 Coeff-Com:  0.154D-01 0.409D+00 0.625D+00
 Coeff:     -0.267D-04 0.127D-02 0.971D-03-0.515D-02-0.150D-01-0.318D-01
 Coeff:      0.154D-01 0.409D+00 0.625D+00
 Gap=     0.262 Goal=   None    Shift=    0.000
 RMSDP=7.96D-09 MaxDP=2.97D-07 DE=-7.34D-11 OVMax= 1.41D-06

 SCF Done:  E(RM062X) =  -323.521610095     A.U. after    9 cycles
            NFock=  9  Conv=0.80D-08     -V/T= 2.0040
 KE= 3.222431661486D+02 PE=-1.307382538987D+03 EE= 3.851756188577D+02
 Leave Link  502 at Fri Aug 27 00:17:11 2021, MaxMem= 17179869184 cpu:       214.6
 (Enter /public3/home/sc51754/softwares/g09e01/l701.exe)
 Compute integral first derivatives.
 ... and contract with generalized density number  0.
 Leave Link  701 at Fri Aug 27 00:17:12 2021, MaxMem= 17179869184 cpu:        76.7
 (Enter /public3/home/sc51754/softwares/g09e01/l702.exe)
 L702 exits ... SP integral derivatives will be done elsewhere.
 Leave Link  702 at Fri Aug 27 00:17:12 2021, MaxMem= 17179869184 cpu:         0.3
 (Enter /public3/home/sc51754/softwares/g09e01/l703.exe)
 Compute integral first derivatives, UseDBF=F ICtDFT=           0.
 Integral derivatives from FoFJK, PRISM(SPDF).
 Calling FoFJK, ICntrl=      2127 FMM=F ISym2X=1 I1Cent= 0 IOpClX= 0 NMat=1 NMatS=1 NMatT=0.
 FoFJK:  IHMeth= 1 ICntrl=    2127 DoSepK=F KAlg= 0 I1Cent=   0 FoldK=F
 IRaf=         0 NMat=   1 IRICut=       1 DoRegI=T DoRafI=F ISym2E= 1.
 FoFCou: FMM=F IPFlag=           0 FMFlag=      100000 FMFlg1=         800
         NFxFlg=           0 DoJE=F BraDBF=F KetDBF=F FulRan=T
         wScrn=  0.000000 ICntrl=    2127 IOpCl=  0 I1Cent=           0 NGrid=           0
         NMat0=    1 NMatS0=      1 NMatT0=    0 NMatD0=    1 NMtDS0=    0 NMtDT0=    0
 Petite list used in FoFCou.
 Leave Link  703 at Fri Aug 27 00:17:15 2021, MaxMem= 17179869184 cpu:       150.2
 (Enter /public3/home/sc51754/softwares/g09e01/l716.exe)
 Dipole        =-4.69788067D-01-1.65891542D+00 8.91412201D-32
 ***** Axes restored to original set *****
 -------------------------------------------------------------------
 Center     Atomic                   Forces (Hartrees/Bohr)
 Number     Number              X              Y              Z
[...]
     35  0.000000D+00 -0.340460D-03 -0.364879D-03  0.000000D+00  0.245921D-03
     36 -0.289616D-01  0.000000D+00  0.000000D+00  0.174475D-02  0.000000D+00
               26            27            28            29            30 
     26  0.146837D+00
     27  0.000000D+00  0.255319D-01
     28 -0.101496D-03  0.000000D+00  0.299801D+00
     29  0.104877D-03  0.000000D+00  0.121129D+00  0.123270D+00
     30  0.000000D+00 -0.125995D-02  0.000000D+00  0.000000D+00  0.241887D-01
     31  0.139872D-03  0.000000D+00 -0.945071D-03  0.829570D-03  0.000000D+00
     32  0.979835D-03  0.000000D+00 -0.849929D-03  0.568084D-03  0.000000D+00
     33  0.000000D+00 -0.630242D-02  0.000000D+00  0.000000D+00 -0.454896D-03
     34 -0.125990D-02  0.000000D+00  0.727012D-03 -0.449284D-03  0.000000D+00
     35 -0.491888D-03  0.000000D+00  0.228239D-03  0.468611D-03  0.000000D+00
     36  0.000000D+00  0.473068D-03  0.000000D+00  0.000000D+00 -0.527624D-02
               31            32            33            34            35 
     31  0.288234D+00
     32 -0.126221D+00  0.127900D+00
     33  0.000000D+00  0.000000D+00  0.272327D-01
     34  0.911979D-03  0.758988D-03  0.000000D+00  0.562058D-01
     35 -0.169235D-03  0.540315D-03  0.000000D+00 -0.447573D-02  0.369987D+00
     36  0.000000D+00  0.000000D+00 -0.205382D-02  0.000000D+00  0.000000D+00
               36 
     36  0.236839D-01
 FormGI is forming the generalized inverse of G from B-inverse, IUseBI=4.
 Leave Link  716 at Fri Aug 27 00:18:24 2021, MaxMem= 17179869184 cpu:        26.2
 (Enter /public3/home/sc51754/softwares/g09e01/l103.exe)

 GradGradGradGradGradGradGradGradGradGradGradGradGradGradGradGradGradGrad
 Berny optimization.
 Red2BG is reusing G-inverse.
 Internal  Forces:  Max     0.000071334 RMS     0.000024113
 Search for a local minimum.
 Step number   1 out of a maximum of    2
 All quantities printed in internal units (Hartrees-Bohrs-Radians)
 Second derivative matrix not updated -- analytic derivatives used.
 ITU=  0
     Eigenvalues ---    0.00831   0.01138   0.01575   0.01747   0.01988
     Eigenvalues ---    0.02255   0.02689   0.03318   0.04862   0.10272
     Eigenvalues ---    0.10780   0.11037   0.12024   0.12633   0.16921
     Eigenvalues ---    0.19657   0.20067   0.23421   0.31979   0.32573
     Eigenvalues ---    0.35811   0.36210   0.37115   0.37184   0.38757
     Eigenvalues ---    0.42703   0.46683   0.53454   0.56349   0.83597
 Angle between quadratic step and forces=  33.32 degrees.
 Linear search not attempted -- first point.
 Iteration  1 RMS(Cart)=  0.00015993 RMS(Int)=  0.00000002
 Iteration  2 RMS(Cart)=  0.00000002 RMS(Int)=  0.00000000
 ITry= 1 IFail=0 DXMaxC= 6.72D-04 DCOld= 1.00D+10 DXMaxT= 3.00D-01 DXLimC= 3.00D+00 Rises=F
 ClnCor:  largest displacement from symmetrization is 3.80D-13 for atom     8.
 Variable       Old X    -DE/DX   Delta X   Delta X   Delta X     New X
                                 (Linear)    (Quad)   (Total)
    R1        2.29738  -0.00005   0.00000  -0.00007  -0.00007   2.29731
    R2        2.64280   0.00001   0.00000   0.00001   0.00001   2.64281
    R3        2.56630   0.00007   0.00000   0.00024   0.00024   2.56654
    R4        1.90644  -0.00002   0.00000  -0.00005  -0.00005   1.90640
    R5        2.74039  -0.00006   0.00000  -0.00010  -0.00010   2.74029
    R6        2.55752  -0.00002   0.00000  -0.00007  -0.00007   2.55744
    R7        2.03967   0.00002   0.00000   0.00008   0.00008   2.03975
    R8        2.55408  -0.00006   0.00000  -0.00014  -0.00014   2.55393
    R9        2.04120  -0.00000   0.00000  -0.00001  -0.00001   2.04119
   R10        2.69178  -0.00004   0.00000  -0.00007  -0.00007   2.69171
   R11        2.04557  -0.00000   0.00000  -0.00002  -0.00002   2.04555
   R12        2.03556   0.00003   0.00000   0.00009   0.00009   2.03565
    A1        2.18871  -0.00002   0.00000  -0.00012  -0.00012   2.18859
    A2        1.99445   0.00003   0.00000   0.00028   0.00028   1.99473
    A3        2.10003  -0.00001   0.00000  -0.00016  -0.00016   2.09987
    A4        2.09593   0.00003   0.00000   0.00017   0.00017   2.09611
    A5        2.21249  -0.00003   0.00000  -0.00019  -0.00019   2.21231
    A6        1.97476  -0.00001   0.00000   0.00001   0.00001   1.97477
    A7        2.11933   0.00004   0.00000   0.00019   0.00019   2.11952
    A8        2.02812  -0.00005   0.00000  -0.00043  -0.00043   2.02769
    A9        2.13573   0.00001   0.00000   0.00024   0.00024   2.13597
   A10        2.10499  -0.00002   0.00000  -0.00009  -0.00009   2.10490
   A11        2.02511   0.00001   0.00000  -0.00001  -0.00001   2.02510
   A12        2.15308   0.00001   0.00000   0.00010   0.00010   2.15318
   A13        2.12269  -0.00003   0.00000  -0.00024  -0.00024   2.12244
   A14        2.08491   0.00003   0.00000   0.00027   0.00027   2.08518
   A15        2.07559  -0.00000   0.00000  -0.00002  -0.00002   2.07557
   A16        2.05589   0.00004   0.00000   0.00025   0.00025   2.05614
   A17        2.10278  -0.00001   0.00000  -0.00002  -0.00002   2.10276
   A18        2.12451  -0.00003   0.00000  -0.00023  -0.00023   2.12428
    D1        3.14159  -0.00000   0.00000   0.00000   0.00000   3.14159
    D2        0.00000   0.00000   0.00000   0.00000   0.00000   0.00000
    D3        0.00000   0.00000   0.00000   0.00000  -0.00000   0.00000
    D4        3.14159   0.00000   0.00000  -0.00000   0.00000   3.14159
    D5        0.00000  -0.00000   0.00000  -0.00000   0.00000   0.00000
    D6        3.14159  -0.00000   0.00000  -0.00000   0.00000   3.14159
    D7        3.14159  -0.00000   0.00000   0.00000   0.00000   3.14159
    D8       -0.00000  -0.00000   0.00000   0.00000   0.00000   0.00000
    D9        3.14159   0.00000   0.00000  -0.00000   0.00000   3.14159
   D10        0.00000  -0.00000   0.00000  -0.00000   0.00000   0.00000
   D11       -0.00000   0.00000   0.00000  -0.00000   0.00000   0.00000
   D12        3.14159   0.00000   0.00000  -0.00000   0.00000   3.14159
   D13        0.00000  -0.00000   0.00000  -0.00000   0.00000   0.00000
   D14        3.14159  -0.00000   0.00000  -0.00000   0.00000   3.14159
   D15        3.14159  -0.00000   0.00000  -0.00000   0.00000   3.14159
   D16       -0.00000   0.00000   0.00000  -0.00000   0.00000   0.00000
   D17       -0.00000   0.00000   0.00000  -0.00000   0.00000   0.00000
   D18        3.14159   0.00000   0.00000  -0.00000   0.00000   3.14159
   D19        3.14159   0.00000   0.00000  -0.00000   0.00000   3.14159
   D20        0.00000   0.00000   0.00000  -0.00000   0.00000   0.00000
   D21        0.00000   0.00000   0.00000   0.00000   0.00000   0.00000
   D22        3.14159   0.00000   0.00000   0.00000   0.00000   3.14159
   D23        3.14159   0.00000   0.00000   0.00000   0.00000   3.14159
   D24       -0.00000   0.00000   0.00000   0.00000   0.00000   0.00000
         Item               Value     Threshold  Converged?
 Maximum Force            0.000071     0.000450     YES
 RMS     Force            0.000024     0.000300     YES
 Maximum Displacement     0.000672     0.001800     YES
 RMS     Displacement     0.000160     0.001200     YES
 Predicted change in Energy=-6.837026D-08
 Optimization completed.
    -- Stationary point found.
                           ----------------------------
                           !   Optimized Parameters   !
                           ! (Angstroms and Degrees)  !
 --------------------------                            --------------------------
 ! Name  Definition              Value          Derivative Info.                !
 --------------------------------------------------------------------------------
 ! R1    R(1,3)                  1.2157         -DE/DX =   -0.0001              !
 ! R2    R(2,3)                  1.3985         -DE/DX =    0.0                 !
 ! R3    R(2,5)                  1.358          -DE/DX =    0.0001              !
 ! R4    R(2,8)                  1.0088         -DE/DX =    0.0                 !
 ! R5    R(3,4)                  1.4502         -DE/DX =   -0.0001              !
 ! R6    R(4,6)                  1.3534         -DE/DX =    0.0                 !
 ! R7    R(4,9)                  1.0793         -DE/DX =    0.0                 !
 ! R8    R(5,7)                  1.3516         -DE/DX =   -0.0001              !
 ! R9    R(5,10)                 1.0802         -DE/DX =    0.0                 !
 ! R10   R(6,7)                  1.4244         -DE/DX =    0.0                 !
 ! R11   R(6,11)                 1.0825         -DE/DX =    0.0                 !
 ! R12   R(7,12)                 1.0772         -DE/DX =    0.0                 !
 ! A1    A(3,2,5)              125.4038         -DE/DX =    0.0                 !
 ! A2    A(3,2,8)              114.2735         -DE/DX =    0.0                 !
 ! A3    A(5,2,8)              120.3228         -DE/DX =    0.0                 !
 ! A4    A(1,3,2)              120.0881         -DE/DX =    0.0                 !
 ! A5    A(1,3,4)              126.7665         -DE/DX =    0.0                 !
 ! A6    A(2,3,4)              113.1454         -DE/DX =    0.0                 !
 ! A7    A(3,4,6)              121.4289         -DE/DX =    0.0                 !
 ! A8    A(3,4,9)              116.2027         -DE/DX =   -0.0001              !
 ! A9    A(6,4,9)              122.3684         -DE/DX =    0.0                 !
 ! A10   A(2,5,7)              120.6072         -DE/DX =    0.0                 !
 ! A11   A(2,5,10)             116.0303         -DE/DX =    0.0                 !
 ! A12   A(7,5,10)             123.3624         -DE/DX =    0.0                 !
 ! A13   A(4,6,7)              121.6209         -DE/DX =    0.0                 !
 ! A14   A(4,6,11)             119.4566         -DE/DX =    0.0                 !
 ! A15   A(7,6,11)             118.9225         -DE/DX =    0.0                 !
 ! A16   A(5,7,6)              117.7938         -DE/DX =    0.0                 !
 ! A17   A(5,7,12)             120.4806         -DE/DX =    0.0                 !
 ! A18   A(6,7,12)             121.7256         -DE/DX =    0.0                 !
 ! D1    D(5,2,3,1)            180.0            -DE/DX =    0.0                 !
 ! D2    D(5,2,3,4)              0.0            -DE/DX =    0.0                 !
 ! D3    D(8,2,3,1)              0.0            -DE/DX =    0.0                 !
 ! D4    D(8,2,3,4)            180.0            -DE/DX =    0.0                 !
 ! D5    D(3,2,5,7)              0.0            -DE/DX =    0.0                 !
 ! D6    D(3,2,5,10)           180.0            -DE/DX =    0.0                 !
 ! D7    D(8,2,5,7)            180.0            -DE/DX =    0.0                 !
 ! D8    D(8,2,5,10)             0.0            -DE/DX =    0.0                 !
 ! D9    D(1,3,4,6)            180.0            -DE/DX =    0.0                 !
 ! D10   D(1,3,4,9)              0.0            -DE/DX =    0.0                 !
 ! D11   D(2,3,4,6)              0.0            -DE/DX =    0.0                 !
 ! D12   D(2,3,4,9)            180.0            -DE/DX =    0.0                 !
 ! D13   D(3,4,6,7)              0.0            -DE/DX =    0.0                 !
 ! D14   D(3,4,6,11)           180.0            -DE/DX =    0.0                 !
 ! D15   D(9,4,6,7)            180.0            -DE/DX =    0.0                 !
 ! D16   D(9,4,6,11)             0.0            -DE/DX =    0.0                 !
 ! D17   D(2,5,7,6)              0.0            -DE/DX =    0.0                 !
 ! D18   D(2,5,7,12)           180.0            -DE/DX =    0.0                 !
 ! D19   D(10,5,7,6)           180.0            -DE/DX =    0.0                 !
 ! D20   D(10,5,7,12)            0.0            -DE/DX =    0.0                 !
 ! D21   D(4,6,7,5)              0.0            -DE/DX =    0.0                 !
 ! D22   D(4,6,7,12)           180.0            -DE/DX =    0.0                 !
 ! D23   D(11,6,7,5)           180.0            -DE/DX =    0.0                 !
 ! D24   D(11,6,7,12)            0.0            -DE/DX =    0.0                 !
 --------------------------------------------------------------------------------
 GradGradGradGradGradGradGradGradGradGradGradGradGradGradGradGradGradGrad

 Leave Link  103 at Fri Aug 27 00:18:25 2021, MaxMem= 17179869184 cpu:        27.9
 (Enter /public3/home/sc51754/softwares/g09e01/l9999.exe)
 1\1\GINC-S2515\Freq\RM062X\Gen\C5H5N1O1\SC51754\27-Aug-2021\0\\#P Geom
 =AllCheck Guess=TCheck SCRF=Check GenChk RM062X/ChkBas Freq\\PY_M062X_
 PC2_OPT_FREQ\\0,1\O,-0.1330769578,2.2694547621,0.\N,-1.133032308,0.235
 0970385,0.\C,-0.0041458325,1.0605902446,0.\C,1.2430458551,0.3206907012
 ,0.\C,-1.1147296363,-1.1228092729,0.\C,1.2607662993,-1.032573488,0.\C,
 0.0576962581,-1.7952156953,0.\H,-2.0106489071,0.7326511178,0.\H,2.1470
 428452,0.9104182818,0.\H,-2.0788397472,-1.6098699546,0.\H,2.2101919502
 ,-1.5525056485,0.\H,0.069833181,-2.8723200867,0.\\Version=EM64L-G09Rev
 E.01\State=1-A'\HF=-323.5216185\RMSD=3.097e-09\RMSF=4.539e-05\ZeroPoin
 t=0.094354\Thermal=0.0995837\Dipole=-0.4670122,-1.6639108,0.\DipoleDer
 iv=-0.4579547,0.2552867,0.,0.0485403,-1.8897592,0.,0.,0.,-0.4341802,-0
 .3966857,-0.5648083,0.,0.4103414,-0.8512935,0.,0.,0.,-0.2383791,0.4849
 381,-0.165607,0.,-0.0186172,2.3249683,0.,0.,0.,0.2844776,-0.0654654,0.
 5358969,0.,-0.0667805,-0.6257555,0.,0.,0.,-0.1778757,0.3541622,-0.0181
 185,0.,-0.6489333,0.4570399,0.,0.,0.,-0.0088428,0.409475,0.2398698,0.,
 0.2072754,0.4993903,0.,0.,0.,-0.078229,-0.6231198,-0.2212893,0.,0.1230
 127,-0.1624772,0.,0.,0.,-0.2162558,0.2519351,-0.0373848,0.,-0.0314341,
 0.1444555,0.,0.,0.,0.2817789,0.0133787,-0.0215324,0.,-0.0360475,0.0379
 299,0.,0.,0.,0.1509019,0.0018126,-0.0417986,0.,-0.0281155,0.0415297,0.
 ,0.,0.,0.143224,-0.0359713,0.0588933,0.,0.0589694,0.0510958,0.,0.,0.,0
 .1260588,0.0634952,-0.0194078,0.,-0.018211,-0.0271241,0.,0.,0.,0.16732
 15\Polar=71.2586793,-0.0976399,88.130671,0.,0.,37.597249\PG=CS [SG(C5H
 5N1O1)]\NImag=0\\0.10115255,-0.06524626,0.79834455,0.,0.,0.03508450,0.
 01256199,-0.04708158,0.,0.75890935,-0.07266620,-0.07951233,0.,-0.10582
 038,0.77407557,0.,0.,0.01994743,0.,0.,0.07638643,-0.11209280,0.0801281
 8,0.,-0.22206933,0.01948895,0.,0.56814860,0.07450279,-0.66183615,0.,-0
 .02913932,-0.14238238,0.,-0.10115720,0.94844885,0.,0.,-0.07686139,0.,0
 .,-0.06187297,0.,0.,0.20575146,0.00278210,0.03092493,0.,-0.04102624,-0
 .01595603,0.,-0.22126417,0.05028453,0.,0.65498216,0.05368577,-0.055895
 56,0.,-0.00994556,0.05036007,0.,0.02614763,-0.12427268,0.,0.07215791,0
 .80744964,0.,0.,0.02292850,0.,0.,0.00662695,0.,0.,-0.07979862,0.,0.,0.
 11834827,-0.01086350,-0.00114093,0.,-0.14687266,-0.02750079,0.,0.03946
 411,-0.02465863,0.,-0.01588952,0.02318541,0.,0.84600886,0.01703681,-0.
 00292451,0.,0.02994197,-0.33639993,0.,-0.08598364,-0.02789082,0.,0.021
 90064,-0.03851668,0.,-0.02351705,0.68592385,0.,0.,0.00536187,0.,0.,-0.
 04542847,0.,0.,-0.00355129,0.,0.,0.00024370,0.,0.,0.14144664,-0.014857
 45,0.01011774,0.,-0.00691191,-0.03708175,0.,0.04376243,0.03004302,0.,-
 0.13463759,0.03151416,0.,-0.06175443,0.02144874,0.,0.67808167,-0.00771
 435,0.01465626,0.,-0.00296309,-0.04281436,0.,0.05173867,-0.02751044,0.
 ,-0.01686721,-0.45741832,0.,-0.02272947,0.05705332,0.,-0.05119535,0.76
 970892,0.,0.,0.00380096,0.,0.,-0.00594772,0.,0.,0.00006255,0.,0.,-0.05
 544767,0.,0.,0.00763690,0.,0.,0.14376649,0.01278912,-0.01075395,0.,0.0
 1079501,0.07523391,0.,-0.05765062,0.00147823,0.,0.02809648,-0.05843821
 ,0.,-0.36794718,0.10549143,0.,-0.23588134,-0.04435488,0.,0.69146137,-0
 .00278509,-0.00626346,0.,0.03599992,-0.04672067,0.,0.01121352,0.007185
 50,0.,-0.03218078,-0.02634602,0.,0.15739125,-0.19795523,0.,-0.10045041
 ,-0.16821641,0.,-0.06967451,0.77569957,0.,0.,-0.00008905,0.,0.,0.01244
 719,0.,0.,-0.00798514,0.,0.,0.00706581,0.,0.,-0.06498019,0.,0.,-0.0612
 2613,0.,0.,0.11668953,0.00502380,0.00110856,0.,-0.36124096,0.15796078,
 0.,-0.02330314,0.01873756,0.,-0.00390534,-0.00338456,0.,0.00704475,-0.
 00031426,0.,-0.00140000,-0.00288525,0.,0.00490202,-0.00269014,0.,0.372
 64174,0.00487295,-0.00272298,0.,0.15717090,-0.15688456,0.,-0.01865390,
 0.02147672,0.,-0.00297052,-0.00349769,0.,0.03237232,-0.01247335,0.,0.0
 0006934,0.00076224,0.,-0.00408322,-0.00564207,0.,-0.16869858,0.1578882
 6,0.,0.,-0.00475390,0.,0.,-0.01683186,0.,0.,0.00352003,0.,0.,0.0044279
 5,0.,0.,-0.00543147,0.,0.,-0.00045464,0.,0.,0.00500994,0.,0.,0.0165767
 9,0.00287493,0.00140709,0.,-0.00547103,0.00235073,0.,-0.01624684,-0.01
 996095,0.,-0.26853051,-0.13252828,0.,-0.00020311,0.00271726,0.,0.00595
 669,0.00291148,0.,0.00253769,0.00097254,0.,-0.00098854,-0.00097605,0.,
 0.27907596,-0.00193817,0.00026308,0.,0.00398035,-0.00105973,0.,0.01409
 414,0.01157219,0.,-0.13455274,-0.14144852,0.,0.00061908,-0.00111289,0.
 ,-0.02718976,-0.01165638,0.,0.00193089,-0.00463022,0.,0.00084598,0.000
 64283,0.,0.14343177,0.14683682,0.,0.,-0.00227514,0.,0.,0.00442688,0.,0
 .,0.00299125,0.,0.,-0.03550090,0.,0.,-0.00064896,0.,0.,0.00315214,0.,0
 .,0.00991109,0.,0.,-0.00049896,0.,0.,0.02553190,-0.00013733,-0.0000320
 2,0.,0.00541043,0.00202575,0.,0.00214790,0.00169216,0.,0.00046442,0.00
 074503,0.,-0.28996153,-0.11357017,0.,-0.00356840,0.00398195,0.,-0.0148
 1620,-0.01484147,0.,0.00088517,-0.00040694,0.,-0.00000721,-0.00010150,
 0.,0.29980080,-0.00175386,-0.00290920,0.,-0.03549078,-0.02005699,0.,0.
 00657734,-0.00057049,0.,-0.00005203,-0.00003580,0.,-0.10710169,-0.1132
 4770,0.,0.00297427,-0.00158937,0.,0.01383961,0.01322278,0.,-0.00036617
 ,0.00077513,0.,-0.00013587,0.00010488,0.,0.12112889,0.12327007,0.,0.,-
 0.00016442,0.,0.,0.00293739,0.,0.,0.00521579,0.,0.,-0.00010200,0.,0.,-
 0.03850318,0.,0.,0.00841131,0.,0.,0.00755790,0.,0.,-0.00255043,0.,0.,-
 0.00125995,0.,0.,0.02418871,-0.00001585,0.00058372,0.,0.00115795,-0.00
 045559,0.,0.00123702,-0.00166030,0.,0.00364489,-0.00130880,0.,-0.00381
 495,-0.00412385,0.,-0.27437870,0.11763078,0.,-0.01685638,0.01471501,0.
 ,0.00003043,0.00003952,0.,0.00079508,0.00013987,0.,-0.00094507,0.00082
 957,0.,0.28823360,0.00188146,-0.00127517,0.,0.00037948,-0.00034904,0.,
 -0.00303494,-0.00459264,0.,0.02993528,-0.01084947,0.,-0.00366614,-0.00
 144146,0.,0.11672303,-0.12346434,0.,-0.01549745,0.01194314,0.,0.000026
 55,0.00004035,0.,-0.00043562,0.00097984,0.,-0.00084993,0.00056808,0.,-
 0.12622071,0.12790039,0.,0.,-0.00248419,0.,0.,-0.00074252,0.,0.,0.0127
 7144,0.,0.,0.00743890,0.,0.,0.00442136,0.,0.,-0.04362903,0.,0.,0.00456
 069,0.,0.,-0.00075821,0.,0.,-0.00630242,0.,0.,-0.00045490,0.,0.,0.0272
 3271,0.00078242,-0.00001549,0.,-0.00524260,0.00242063,0.,-0.00213316,-
 0.00016189,0.,-0.00471669,-0.00183049,0.,0.00478916,0.02897212,0.,0.00
 558903,-0.02755328,0.,-0.05742998,0.00233015,0.,0.00031007,0.00126416,
 0.,0.00020691,-0.00125990,0.,0.00072701,-0.00044928,0.,0.00091198,0.00
 075899,0.,0.05620585,0.00012414,0.00007548,0.,0.00296809,0.00174435,0.
 ,-0.00055875,0.00037234,0.,-0.00262399,0.00047104,0.,-0.00325336,-0.01
 101461,0.,0.00302696,-0.00951111,0.,0.00482816,-0.35227690,0.,-0.00034
 046,-0.00036488,0.,0.00024592,-0.00049189,0.,0.00022824,0.00046861,0.,
 -0.00016924,0.00054032,0.,-0.00447573,0.36998724,0.,0.,-0.00049518,0.,
 0.,0.00805128,0.,0.,-0.00024312,0.,0.,0.00376911,0.,0.,-0.00056692,0.,
 0.,-0.00012517,0.,0.,-0.02896163,0.,0.,0.00174475,0.,0.,0.00047307,0.,
 0.,-0.00527624,0.,0.,-0.00205382,0.,0.,0.02368387\\-0.00001426,0.00005
 174,0.,0.00001398,-0.00008414,0.,-0.00003233,-0.00004986,0.,0.00009879
 ,0.00004428,0.,-0.00003023,0.00014105,0.,-0.00002789,0.00001701,0.,0.0
 0002005,-0.00014193,0.,0.00000250,0.00004000,0.,0.00000523,-0.00005426
 ,0.,-0.00000713,0.00001181,0.,0.00000067,-0.00000208,0.,-0.00002937,0.
 00002638,0.\\\@


 THERE'S NOTHING SO GREAT AS THE GREAT OUTDOORS.

                                       -- ZIGGY
 Job cpu time:       0 days  0 hours 42 minutes 25.9 seconds.
 File lengths (MBytes):  RWF=     80 Int=      0 D2E=      0 Chk=      7 Scr=      1
 Normal termination of Gaussian 09 at Fri Aug 27 00:18:25 2021.
