 Entering Gaussian System, Link 0=g09
 AtFile(1): pc-2.gbs
            -H     0
            S    4   1.00
                  0.754230D+02           0.240650D-02
                  0.113500D+02           0.184870D-01
                  0.259930D+01           0.897420D-01
                  0.735130D+00           0.281110D+00
            S    1   1.00
                  0.231670D+00           0.100000D+01
            S    1   1.00
                  0.741470D-01           0.100000D+01
            P    1   1.00
                  0.160000D+01           0.100000D+01
            P    1   1.00
                  0.450000D+00           0.100000D+01
            D    1   1.00
                  0.125000D+01           0.100000D+01
            ****
            -C     0
            S    7   1.00
                  0.785710D+04           0.568250D-03
                  0.117870D+04           0.439150D-02
                  0.268320D+03           0.225040D-01
                  0.759480D+02           0.866530D-01
                  0.245590D+02           0.244050D+00
                  0.862120D+01           0.441480D+00
                  0.312780D+01           0.353320D+00
            S    7   1.00
                  0.117870D+04          -0.594920D-06
                  0.268320D+03          -0.627480D-04
                  0.759480D+02          -0.757730D-03
                  0.245590D+02          -0.733080D-02
                  0.862120D+01          -0.389320D-01
                  0.312780D+01          -0.889080D-01
                  0.822020D+00           0.216890D+00
            S    1   1.00
                  0.330170D+00           0.100000D+01
            S    1   1.00
                  0.114630D+00           0.100000D+01
            P    4   1.00
                  0.337750D+02           0.602940D-02
                  0.767660D+01           0.432280D-01
                  0.223570D+01           0.163010D+00
                  0.764470D+00           0.365040D+00
            P    1   1.00
                  0.262320D+00           0.100000D+01
            P    1   1.00
                  0.846380D-01           0.100000D+01
            D    1   1.00
                  0.140000D+01           0.100000D+01
            D    1   1.00
                  0.450000D+00           0.100000D+01
            F    1   1.00
                  0.950000D+00           0.100000D+01
            ****
            -N     0
            S    7   1.00
                  0.111010D+05           0.545700D-03
                  0.166530D+04           0.421810D-02
                  0.379080D+03           0.216450D-01
                  0.107300D+03           0.837760D-01
                  0.347470D+02           0.238810D+00
                  0.122490D+02           0.439940D+00
                  0.447430D+01           0.363640D+00
            S    7   1.00
                  0.166530D+04          -0.150060D-05
                  0.379080D+03          -0.587530D-04
                  0.107300D+03          -0.774530D-03
                  0.347470D+02          -0.721610D-02
                  0.122490D+02          -0.393380D-01
                  0.447430D+01          -0.906110D-01
                  0.124040D+01           0.198820D+00
            S    1   1.00
                  0.487430D+00           0.100000D+01
            S    1   1.00
                  0.164840D+00           0.100000D+01
            P    4   1.00
                  0.479340D+02           0.617060D-02
                  0.109990D+02           0.442600D-01
                  0.324720D+01           0.168250D+00
                  0.111140D+01           0.368480D+00
            P    1   1.00
                  0.379880D+00           0.100000D+01
            P    1   1.00
                  0.120680D+00           0.100000D+01
            D    1   1.00
                  0.180000D+01           0.100000D+01
            D    1   1.00
                  0.550000D+00           0.100000D+01
            F    1   1.00
                  0.102000D+01           0.100000D+01
            ****
            -O     0
            S    7   1.00
                  0.147820D+05           0.535190D-03
                  0.221730D+04           0.413750D-02
                  0.504740D+03           0.212450D-01
                  0.142870D+03           0.824530D-01
                  0.463000D+02           0.236710D+00
                  0.163370D+02           0.440390D+00
                  0.598280D+01           0.364650D+00
            S    7   1.00
                  0.221730D+04          -0.192750D-05
                  0.504740D+03          -0.579640D-04
                  0.142870D+03          -0.794940D-03
                  0.463000D+02          -0.731250D-02
                  0.163370D+02          -0.405740D-01
                  0.598280D+01          -0.915940D-01
                  0.167180D+01           0.209400D+00
            S    1   1.00
                  0.646620D+00           0.100000D+01
            S    1   1.00
                  0.216690D+00           0.100000D+01
            P    4   1.00
                  0.604240D+02           0.689490D-02
                  0.139350D+02           0.490050D-01
                  0.415310D+01           0.182550D+00
                  0.141580D+01           0.376330D+00
            P    1   1.00
                  0.475490D+00           0.100000D+01
            P    1   1.00
                  0.145290D+00           0.100000D+01
            D    1   1.00
                  0.220000D+01           0.100000D+01
            D    1   1.00
                  0.650000D+00           0.100000D+01
            F    1   1.00
                  0.110000D+01           0.100000D+01
            ****
 Initial command:
 /public3/home/sc51754/softwares/g09e01/l1.exe "./Gau-37889.inp" -scrdir="./"
 Entering Link 1 = /public3/home/sc51754/softwares/g09e01/l1.exe PID=     37890.
  
 Copyright (c) 1988,1990,1992,1993,1995,1998,2003,2009,2015,
            Gaussian, Inc.  All Rights Reserved.
  
 This is part of the Gaussian(R) 09 program.  It is based on
 the Gaussian(R) 03 system (copyright 2003, Gaussian, Inc.),
 the Gaussian(R) 98 system (copyright 1998, Gaussian, Inc.),
 the Gaussian(R) 94 system (copyright 1995, Gaussian, Inc.),
 the Gaussian 92(TM) system (copyright 1992, Gaussian, Inc.),
 the Gaussian 90(TM) system (copyright 1990, Gaussian, Inc.),
 the Gaussian 88(TM) system (copyright 1988, Gaussian, Inc.),
 the Gaussian 86(TM) system (copyright 1986, Carnegie Mellon
 University), and the Gaussian 82(TM) system (copyright 1983,
 Carnegie Mellon University). Gaussian is a federally registered
 trademark of Gaussian, Inc.
  
 This software contains proprietary and confidential information,
 including trade secrets, belonging to Gaussian, Inc.
  
 This software is provided under written license and may be
 used, copied, transmitted, or stored only in accord with that
 written license.
  
 The following legend is applicable only to US Government
 contracts under FAR:
  
                    RESTRICTED RIGHTS LEGEND
  
 Use, reproduction and disclosure by the US Government is
 subject to restrictions as set forth in subparagraphs (a)
 and (c) of the Commercial Computer Software - Restricted
 Rights clause in FAR 52.227-19.
  
 Gaussian, Inc.
 340 Quinnipiac St., Bldg. 40, Wallingford CT 06492
  
  
 ---------------------------------------------------------------
 Warning -- This program may not be used in any manner that
 competes with the business of Gaussian, Inc. or will provide
 assistance to any competitor of Gaussian, Inc.  The licensee
 of this program is prohibited from giving any competitor of
 Gaussian, Inc. access to this program.  By using this program,
 the user acknowledges that Gaussian, Inc. is engaged in the
 business of creating and licensing software in the field of
 computational chemistry and represents and warrants to the
 licensee that it is not a competitor of Gaussian, Inc. and that
 it will not use this program in any manner prohibited above.
 ---------------------------------------------------------------
  

 Cite this work as:
 Gaussian 09, Revision E.01,
 M. J. Frisch, G. W. Trucks, H. B. Schlegel, G. E. Scuseria, 
 M. A. Robb, J. R. Cheeseman, G. Scalmani, V. Barone, B. Mennucci, 
 G. A. Petersson, H. Nakatsuji, M. Caricato, X. Li, H. P. Hratchian, 
 A. F. Izmaylov, J. Bloino, G. Zheng, J. L. Sonnenberg, M. Hada, 
 M. Ehara, K. Toyota, R. Fukuda, J. Hasegawa, M. Ishida, T. Nakajima, 
 Y. Honda, O. Kitao, H. Nakai, T. Vreven, J. A. Montgomery, Jr., 
 J. E. Peralta, F. Ogliaro, M. Bearpark, J. J. Heyd, E. Brothers, 
 K. N. Kudin, V. N. Staroverov, T. Keith, R. Kobayashi, J. Normand, 
 K. Raghavachari, A. Rendell, J. C. Burant, S. S. Iyengar, J. Tomasi, 
 M. Cossi, N. Rega, J. M. Millam, M. Klene, J. E. Knox, J. B. Cross, 
 V. Bakken, C. Adamo, J. Jaramillo, R. Gomperts, R. E. Stratmann, 
 O. Yazyev, A. J. Austin, R. Cammi, C. Pomelli, J. W. Ochterski, 
 R. L. Martin, K. Morokuma, V. G. Zakrzewski, G. A. Voth, 
 P. Salvador, J. J. Dannenberg, S. Dapprich, A. D. Daniels, 
 O. Farkas, J. B. Foresman, J. V. Ortiz, J. Cioslowski, 
 and D. J. Fox, Gaussian, Inc., Wallingford CT, 2013.
 
 ******************************************
 Gaussian 09:  EM64L-G09RevE.01 30-Nov-2015
                28-Aug-2021 
 ******************************************
 %nprocshared=64
 Will use up to   64 processors via shared memory.
 %mem=128GB
 %chk=TST_GAS_M062X.chk
 ------------------------------------------------
 #p opt=(calcfc,qst3,MaxCycle=200) freq M062X/gen
 ------------------------------------------------
 1/5=1,6=200,10=4,14=-1,18=20,26=3,27=203,38=1/1,3;
 2/9=110,12=2,17=6,18=5,40=1/2;
 3/5=7,11=2,16=1,25=1,30=1,71=2,74=-55,140=1/1,2,3;
 4//1;
 5/5=2,38=5/2;
 8/6=4,10=90,11=11/1;
 11/6=1,8=1,9=11,15=111,16=1/1,2,10;
 10/6=1,13=1/2;
 6/7=2,8=2,9=2,10=2,28=1/1;
 7/10=1,18=20,25=1/1,2,3,16;
 1/5=1,6=200,10=4,14=-1,18=20,26=3,27=203/3(2);
 2/9=110/2;
 99//99;
 2/9=110/2;
 3/5=7,6=1,11=2,16=1,25=1,30=1,71=1,74=-55,82=7/1,2,3;
 4/5=5,16=3,69=1/1;
 5/5=2,38=5/2;
 7//1,2,3,16;
 1/5=1,6=200,14=-1,18=20,26=3,27=203/3(-5);
 2/9=110/2;
 6/7=2,8=2,9=2,10=2,19=2,28=1/1;
 99/9=1/99;
 Leave Link    1 at Sat Aug 28 00:50:36 2021, MaxMem= 17179869184 cpu:         6.9
 (Enter /public3/home/sc51754/softwares/g09e01/l101.exe)
 ---------------------
 HY_M062X_PC2_OPT_FREQ
 ---------------------
 Symbolic Z-matrix:
 Charge =  0 Multiplicity = 1
 O                     0.00904   2.24521   0. 
 N                    -1.17353   0.29712   0. 
 C                     0.        0.89855   0. 
 C                     1.22198   0.2245    0. 
 C                    -1.18713  -1.03704   0. 
 C                     1.18622  -1.15266   0. 
 C                    -0.04199  -1.80896   0. 
 H                    -0.91222   2.52926   0. 
 H                     2.14425   0.78492   0. 
 H                    -2.16688  -1.49886   0. 
 H                     2.10901  -1.71683   0. 
 H                    -0.10626  -2.88628   0. 
 
 ---------------------
 PY_M062X_PC2_OPT_FREQ
 ---------------------
 Symbolic Z-matrix:
 Charge =  0 Multiplicity = 1
 O                    -0.12426   2.27008   0. 
 N                    -1.13207   0.2396    0. 
 C                     0.        1.06072   0. 
 C                     1.24433   0.31601   0. 
 C                    -1.11901  -1.11837   0. 
 C                     1.25682  -1.03731   0. 
 C                     0.05081  -1.7953    0. 
 H                    -2.00775   0.74054   0. 
 H                     2.15059   0.90224   0. 
 H                    -2.08499  -1.60171   0. 
 H                     2.20423  -1.56091   0. 
 H                     0.05879  -2.87244   0. 
 
 -------------
 TST_GAS_M062X
 -------------
 Symbolic Z-matrix:
 Charge =  0 Multiplicity = 1
 O                     0.22702   2.58618   0. 
 N                    -0.95554   0.63809   0. 
 C                     0.21799   1.23953   0. 
 C                     1.43997   0.56547   0. 
 C                    -0.96914  -0.69607   0. 
 C                     1.4042   -0.81168   0. 
 C                     0.176    -1.46798   0. 
 H                    -1.1302    2.18829   0. 
 H                     2.36223   1.1259    0. 
 H                    -1.94889  -1.15788   0. 
 H                     2.32699  -1.37585   0. 
 H                     0.11173  -2.5453    0. 
 
 NAtoms=     12 NQM=       12 NQMF=       0 NMMI=      0 NMMIF=      0
                NMic=       0 NMicF=      0.
                    Isotopes and Nuclear Properties:
 (Nuclear quadrupole moments (NQMom) in fm**2, nuclear magnetic moments (NMagM)
  in nuclear magnetons)

  Atom         1           2           3           4           5           6           7           8           9          10
 IAtWgt=          16          14          12          12          12          12          12           1           1           1
 AtmWgt=  15.9949146  14.0030740  12.0000000  12.0000000  12.0000000  12.0000000  12.0000000   1.0078250   1.0078250   1.0078250
 NucSpn=           0           2           0           0           0           0           0           1           1           1
 AtZEff=   0.0000000   0.0000000   0.0000000   0.0000000   0.0000000   0.0000000   0.0000000   0.0000000   0.0000000   0.0000000
 NQMom=    0.0000000   2.0440000   0.0000000   0.0000000   0.0000000   0.0000000   0.0000000   0.0000000   0.0000000   0.0000000
 NMagM=    0.0000000   0.4037610   0.0000000   0.0000000   0.0000000   0.0000000   0.0000000   2.7928460   2.7928460   2.7928460
 AtZNuc=   8.0000000   7.0000000   6.0000000   6.0000000   6.0000000   6.0000000   6.0000000   1.0000000   1.0000000   1.0000000

  Atom        11          12
 IAtWgt=           1           1
 AtmWgt=   1.0078250   1.0078250
 NucSpn=           1           1
 AtZEff=   0.0000000   0.0000000
 NQMom=    0.0000000   0.0000000
 NMagM=    2.7928460   2.7928460
 AtZNuc=   1.0000000   1.0000000
 Leave Link  101 at Sat Aug 28 00:50:36 2021, MaxMem= 17179869184 cpu:         9.4
 (Enter /public3/home/sc51754/softwares/g09e01/l103.exe)

 GradGradGradGradGradGradGradGradGradGradGradGradGradGradGradGradGradGrad
 Berny optimization.
 Initialization pass.
                           ----------------------------
                           !    Initial Parameters    !
                           ! (Angstroms and Degrees)  !
 --------------------------                            --------------------------
 ! Name  Definition        TS        Reactant  Product Derivative Info.         !
 --------------------------------------------------------------------------------
 ! R1    R(1,3)             1.3467    1.3467    1.2157 calculate D2E/DX2 analyti!
 ! R2    R(1,8)             1.4144    0.9641    2.4263 calculate D2E/DX2 analyti!
 ! R3    R(2,3)             1.3187    1.3187    1.3985 calculate D2E/DX2 analyti!
 ! R4    R(2,5)             1.3342    1.3342    1.358  calculate D2E/DX2 analyti!
 ! R5    R(2,8)             1.56      2.2474    1.0088 calculate D2E/DX2 analyti!
 ! R6    R(3,4)             1.3956    1.3956    1.4502 calculate D2E/DX2 analyti!
 ! R7    R(4,6)             1.3776    1.3776    1.3534 calculate D2E/DX2 analyti!
 ! R8    R(4,9)             1.0792    1.0792    1.0793 calculate D2E/DX2 analyti!
 ! R9    R(5,7)             1.381     1.381     1.3516 calculate D2E/DX2 analyti!
 ! R10   R(5,10)            1.0831    1.0831    1.0802 calculate D2E/DX2 analyti!
 ! R11   R(6,7)             1.3926    1.3926    1.4244 calculate D2E/DX2 analyti!
 ! R12   R(6,11)            1.0816    1.0816    1.0825 calculate D2E/DX2 analyti!
 ! R13   R(7,12)            1.0792    1.0792    1.0772 calculate D2E/DX2 analyti!
 ! A1    A(3,1,8)          73.276   106.752    56.7873 calculate D2E/DX2 analyti!
 ! A2    A(3,2,5)         117.7191  117.7191  125.4038 calculate D2E/DX2 analyti!
 ! A3    A(3,2,8)          69.2933   56.1877  114.2735 calculate D2E/DX2 analyti!
 ! A4    A(5,2,8)         172.9877  173.9068  120.3227 calculate D2E/DX2 analyti!
 ! A5    A(1,3,2)         117.5197  117.5197  120.0881 calculate D2E/DX2 analyti!
 ! A6    A(1,3,4)         118.497   118.497   126.7664 calculate D2E/DX2 analyti!
 ! A7    A(2,3,4)         123.9833  123.9833  113.1454 calculate D2E/DX2 analyti!
 ! A8    A(3,4,6)         117.3939  117.3939  121.4288 calculate D2E/DX2 analyti!
 ! A9    A(3,4,9)         119.8331  119.8331  116.2027 calculate D2E/DX2 analyti!
 ! A10   A(6,4,9)         122.773   122.773   122.3684 calculate D2E/DX2 analyti!
 ! A11   A(2,5,7)         123.3991  123.3991  120.6072 calculate D2E/DX2 analyti!
 ! A12   A(2,5,10)        115.8209  115.8209  116.0303 calculate D2E/DX2 analyti!
 ! A13   A(7,5,10)        120.7799  120.7799  123.3625 calculate D2E/DX2 analyti!
 ! A14   A(4,6,7)         119.6057  119.6057  121.6209 calculate D2E/DX2 analyti!
 ! A15   A(4,6,11)        119.9529  119.9529  119.4566 calculate D2E/DX2 analyti!
 ! A16   A(7,6,11)        120.4414  120.4414  118.9225 calculate D2E/DX2 analyti!
 ! A17   A(5,7,6)         117.8989  117.8989  117.7939 calculate D2E/DX2 analyti!
 ! A18   A(5,7,12)        120.5691  120.5691  120.4806 calculate D2E/DX2 analyti!
 ! A19   A(6,7,12)        121.5321  121.5321  121.7256 calculate D2E/DX2 analyti!
 ! D1    D(8,1,3,2)         0.0       0.0       0.0    calculate D2E/DX2 analyti!
 ! D2    D(8,1,3,4)       180.0     180.0     180.0    calculate D2E/DX2 analyti!
 ! D3    D(5,2,3,1)       180.0     180.0     180.0    calculate D2E/DX2 analyti!
 ! D4    D(5,2,3,4)         0.0       0.0       0.0    calculate D2E/DX2 analyti!
 ! D5    D(8,2,3,1)         0.0       0.0       0.0    calculate D2E/DX2 analyti!
 ! D6    D(8,2,3,4)       180.0     180.0     180.0    calculate D2E/DX2 analyti!
 ! D7    D(3,2,5,7)         0.0       0.0       0.0    calculate D2E/DX2 analyti!
 ! D8    D(3,2,5,10)      180.0     180.0     180.0    calculate D2E/DX2 analyti!
 ! D9    D(8,2,5,7)       180.0       0.0     180.0    calculate D2E/DX2 analyti!
 ! D10   D(8,2,5,10)        0.0     180.0       0.0    calculate D2E/DX2 analyti!
 ! D11   D(1,3,4,6)       180.0     180.0     180.0    calculate D2E/DX2 analyti!
 ! D12   D(1,3,4,9)         0.0       0.0       0.0    calculate D2E/DX2 analyti!
 ! D13   D(2,3,4,6)         0.0       0.0       0.0    calculate D2E/DX2 analyti!
 ! D14   D(2,3,4,9)       180.0     180.0     180.0    calculate D2E/DX2 analyti!
 ! D15   D(3,4,6,7)         0.0       0.0       0.0    calculate D2E/DX2 analyti!
 ! D16   D(3,4,6,11)      180.0     180.0     180.0    calculate D2E/DX2 analyti!
 ! D17   D(9,4,6,7)       180.0     180.0     180.0    calculate D2E/DX2 analyti!
 ! D18   D(9,4,6,11)        0.0       0.0       0.0    calculate D2E/DX2 analyti!
 ! D19   D(2,5,7,6)         0.0       0.0       0.0    calculate D2E/DX2 analyti!
 ! D20   D(2,5,7,12)      180.0     180.0     180.0    calculate D2E/DX2 analyti!
 ! D21   D(10,5,7,6)      180.0     180.0     180.0    calculate D2E/DX2 analyti!
 ! D22   D(10,5,7,12)       0.0       0.0       0.0    calculate D2E/DX2 analyti!
 ! D23   D(4,6,7,5)         0.0       0.0       0.0    calculate D2E/DX2 analyti!
 ! D24   D(4,6,7,12)      180.0     180.0     180.0    calculate D2E/DX2 analyti!
 ! D25   D(11,6,7,5)      180.0     180.0     180.0    calculate D2E/DX2 analyti!
 ! D26   D(11,6,7,12)       0.0       0.0       0.0    calculate D2E/DX2 analyti!
 --------------------------------------------------------------------------------
 Trust Radius=3.00D-01 FncErr=1.00D-07 GrdErr=1.00D-06
 Number of steps in this run=    100 maximum allowed number of steps=    100.
 Search for a saddle point of order  1.
 GradGradGradGradGradGradGradGradGradGradGradGradGradGradGradGradGradGrad

 Leave Link  103 at Sat Aug 28 00:50:36 2021, MaxMem= 17179869184 cpu:         0.8
 (Enter /public3/home/sc51754/softwares/g09e01/l202.exe)
                          Input orientation:                          
 ---------------------------------------------------------------------
 Center     Atomic      Atomic             Coordinates (Angstroms)
 Number     Number       Type             X           Y           Z
 ---------------------------------------------------------------------
      1          8           0        0.227025    2.586182    0.000000
      2          7           0       -0.955542    0.638094    0.000000
      3          6           0        0.217987    1.239528    0.000000
      4          6           0        1.439968    0.565473    0.000000
      5          6           0       -0.969139   -0.696068    0.000000
      6          6           0        1.404204   -0.811681    0.000000
      7          6           0        0.175998   -1.467980    0.000000
      8          1           0       -1.130203    2.188286    0.000000
      9          1           0        2.362234    1.125898    0.000000
     10          1           0       -1.948891   -1.157878    0.000000
     11          1           0        2.326994   -1.375850    0.000000
     12          1           0        0.111729   -2.545305    0.000000
 ---------------------------------------------------------------------
                    Distance matrix (angstroms):
                    1          2          3          4          5
     1  O    0.000000
     2  N    2.278928   0.000000
     3  C    1.346684   1.318671   0.000000
     4  C    2.356798   2.396611   1.395560   0.000000
     5  C    3.493419   1.334231   2.270639   2.719427   0.000000
     6  C    3.596001   2.769521   2.369508   1.377618   2.376157
     7  C    4.054483   2.390801   2.707834   2.394275   1.381009
     8  H    1.414351   1.560000   1.648562   3.039621   2.888847
     9  H    2.586802   3.353445   2.147256   1.079190   3.797052
    10  H    4.330427   2.052379   3.231550   3.801882   1.083135
    11  H    4.484146   3.851105   3.359779   2.134373   3.365501
    12  H    5.132782   3.357543   3.786324   3.382478   2.141951
                    6          7          8          9         10
     6  C    0.000000
     7  C    1.392558   0.000000
     8  H    3.927215   3.882581   0.000000
     9  H    2.161489   3.392319   3.650449   0.000000
    10  H    3.370920   2.147398   3.444860   4.878671   0.000000
    11  H    1.081586   2.152968   4.965407   2.501996   4.281437
    12  H    2.162393   1.079240   4.893799   4.306101   2.484172
                   11         12
    11  H    0.000000
    12  H    2.505000   0.000000
 Stoichiometry    C5H5NO
 Framework group  CS[SG(C5H5NO)]
 Deg. of freedom    21
 Full point group                 CS      NOp   2
 Largest Abelian subgroup         CS      NOp   2
 Largest concise Abelian subgroup C1      NOp   1
                         Standard orientation:                         
 ---------------------------------------------------------------------
 Center     Atomic      Atomic             Coordinates (Angstroms)
 Number     Number       Type             X           Y           Z
 ---------------------------------------------------------------------
      1          8           0       -0.003834    2.258911   -0.000000
      2          7           0       -1.167727    0.299608   -0.000000
      3          6           0        0.000000    0.912232   -0.000000
      4          6           0        1.228368    0.249888    0.000000
      5          6           0       -1.168571   -1.034623   -0.000000
      6          6           0        1.205769   -1.127545    0.000000
      7          6           0       -0.016108   -1.795554    0.000000
      8          1           0       -1.357197    1.848059   -0.000000
      9          1           0        2.145235    0.819102    0.000000
     10          1           0       -2.143864   -1.505777   -0.000000
     11          1           0        2.133909   -1.682868    0.000000
     12          1           0       -0.070076   -2.873444    0.000000
 ---------------------------------------------------------------------
 Rotational constants (GHZ):      5.8356231      2.8390504      1.9098849
 Leave Link  202 at Sat Aug 28 00:50:36 2021, MaxMem= 17179869184 cpu:         6.2
 (Enter /public3/home/sc51754/softwares/g09e01/l301.exe)
 General basis read from cards:  (5D, 7F)
 Centers:       8      9     10     11     12
 S 4 1.00
     Exponent=  7.5423000000D+01 Coefficients=  2.4065000000D-03
     Exponent=  1.1350000000D+01 Coefficients=  1.8487000000D-02
     Exponent=  2.5993000000D+00 Coefficients=  8.9742000000D-02
     Exponent=  7.3513000000D-01 Coefficients=  2.8111000000D-01
 S 1 1.00
     Exponent=  2.3167000000D-01 Coefficients=  1.0000000000D+00
 S 1 1.00
     Exponent=  7.4147000000D-02 Coefficients=  1.0000000000D+00
 P 1 1.00
     Exponent=  1.6000000000D+00 Coefficients=  1.0000000000D+00
 P 1 1.00
     Exponent=  4.5000000000D-01 Coefficients=  1.0000000000D+00
 D 1 1.00
     Exponent=  1.2500000000D+00 Coefficients=  1.0000000000D+00
 ****
 Centers:       3      4      5      6      7
 S 7 1.00
     Exponent=  7.8571000000D+03 Coefficients=  5.6825000000D-04
     Exponent=  1.1787000000D+03 Coefficients=  4.3915000000D-03
     Exponent=  2.6832000000D+02 Coefficients=  2.2504000000D-02
     Exponent=  7.5948000000D+01 Coefficients=  8.6653000000D-02
     Exponent=  2.4559000000D+01 Coefficients=  2.4405000000D-01
     Exponent=  8.6212000000D+00 Coefficients=  4.4148000000D-01
     Exponent=  3.1278000000D+00 Coefficients=  3.5332000000D-01
 S 7 1.00
     Exponent=  1.1787000000D+03 Coefficients= -5.9492000000D-07
     Exponent=  2.6832000000D+02 Coefficients= -6.2748000000D-05
     Exponent=  7.5948000000D+01 Coefficients= -7.5773000000D-04
     Exponent=  2.4559000000D+01 Coefficients= -7.3308000000D-03
     Exponent=  8.6212000000D+00 Coefficients= -3.8932000000D-02
     Exponent=  3.1278000000D+00 Coefficients= -8.8908000000D-02
     Exponent=  8.2202000000D-01 Coefficients=  2.1689000000D-01
 S 1 1.00
     Exponent=  3.3017000000D-01 Coefficients=  1.0000000000D+00
 S 1 1.00
     Exponent=  1.1463000000D-01 Coefficients=  1.0000000000D+00
 P 4 1.00
     Exponent=  3.3775000000D+01 Coefficients=  6.0294000000D-03
     Exponent=  7.6766000000D+00 Coefficients=  4.3228000000D-02
     Exponent=  2.2357000000D+00 Coefficients=  1.6301000000D-01
     Exponent=  7.6447000000D-01 Coefficients=  3.6504000000D-01
 P 1 1.00
     Exponent=  2.6232000000D-01 Coefficients=  1.0000000000D+00
 P 1 1.00
     Exponent=  8.4638000000D-02 Coefficients=  1.0000000000D+00
 D 1 1.00
     Exponent=  1.4000000000D+00 Coefficients=  1.0000000000D+00
 D 1 1.00
     Exponent=  4.5000000000D-01 Coefficients=  1.0000000000D+00
 F 1 1.00
     Exponent=  9.5000000000D-01 Coefficients=  1.0000000000D+00
 ****
 Centers:       2
 S 7 1.00
     Exponent=  1.1101000000D+04 Coefficients=  5.4570000000D-04
     Exponent=  1.6653000000D+03 Coefficients=  4.2181000000D-03
     Exponent=  3.7908000000D+02 Coefficients=  2.1645000000D-02
     Exponent=  1.0730000000D+02 Coefficients=  8.3776000000D-02
     Exponent=  3.4747000000D+01 Coefficients=  2.3881000000D-01
     Exponent=  1.2249000000D+01 Coefficients=  4.3994000000D-01
     Exponent=  4.4743000000D+00 Coefficients=  3.6364000000D-01
 S 7 1.00
     Exponent=  1.6653000000D+03 Coefficients= -1.5006000000D-06
     Exponent=  3.7908000000D+02 Coefficients= -5.8753000000D-05
     Exponent=  1.0730000000D+02 Coefficients= -7.7453000000D-04
     Exponent=  3.4747000000D+01 Coefficients= -7.2161000000D-03
     Exponent=  1.2249000000D+01 Coefficients= -3.9338000000D-02
     Exponent=  4.4743000000D+00 Coefficients= -9.0611000000D-02
     Exponent=  1.2404000000D+00 Coefficients=  1.9882000000D-01
 S 1 1.00
     Exponent=  4.8743000000D-01 Coefficients=  1.0000000000D+00
 S 1 1.00
     Exponent=  1.6484000000D-01 Coefficients=  1.0000000000D+00
 P 4 1.00
     Exponent=  4.7934000000D+01 Coefficients=  6.1706000000D-03
     Exponent=  1.0999000000D+01 Coefficients=  4.4260000000D-02
     Exponent=  3.2472000000D+00 Coefficients=  1.6825000000D-01
     Exponent=  1.1114000000D+00 Coefficients=  3.6848000000D-01
 P 1 1.00
     Exponent=  3.7988000000D-01 Coefficients=  1.0000000000D+00
 P 1 1.00
     Exponent=  1.2068000000D-01 Coefficients=  1.0000000000D+00
 D 1 1.00
     Exponent=  1.8000000000D+00 Coefficients=  1.0000000000D+00
 D 1 1.00
     Exponent=  5.5000000000D-01 Coefficients=  1.0000000000D+00
 F 1 1.00
     Exponent=  1.0200000000D+00 Coefficients=  1.0000000000D+00
 ****
 Centers:       1
 S 7 1.00
     Exponent=  1.4782000000D+04 Coefficients=  5.3519000000D-04
     Exponent=  2.2173000000D+03 Coefficients=  4.1375000000D-03
     Exponent=  5.0474000000D+02 Coefficients=  2.1245000000D-02
     Exponent=  1.4287000000D+02 Coefficients=  8.2453000000D-02
     Exponent=  4.6300000000D+01 Coefficients=  2.3671000000D-01
     Exponent=  1.6337000000D+01 Coefficients=  4.4039000000D-01
     Exponent=  5.9828000000D+00 Coefficients=  3.6465000000D-01
 S 7 1.00
     Exponent=  2.2173000000D+03 Coefficients= -1.9275000000D-06
     Exponent=  5.0474000000D+02 Coefficients= -5.7964000000D-05
     Exponent=  1.4287000000D+02 Coefficients= -7.9494000000D-04
     Exponent=  4.6300000000D+01 Coefficients= -7.3125000000D-03
     Exponent=  1.6337000000D+01 Coefficients= -4.0574000000D-02
     Exponent=  5.9828000000D+00 Coefficients= -9.1594000000D-02
     Exponent=  1.6718000000D+00 Coefficients=  2.0940000000D-01
 S 1 1.00
     Exponent=  6.4662000000D-01 Coefficients=  1.0000000000D+00
 S 1 1.00
     Exponent=  2.1669000000D-01 Coefficients=  1.0000000000D+00
 P 4 1.00
     Exponent=  6.0424000000D+01 Coefficients=  6.8949000000D-03
     Exponent=  1.3935000000D+01 Coefficients=  4.9005000000D-02
     Exponent=  4.1531000000D+00 Coefficients=  1.8255000000D-01
     Exponent=  1.4158000000D+00 Coefficients=  3.7633000000D-01
 P 1 1.00
     Exponent=  4.7549000000D-01 Coefficients=  1.0000000000D+00
 P 1 1.00
     Exponent=  1.4529000000D-01 Coefficients=  1.0000000000D+00
 D 1 1.00
     Exponent=  2.2000000000D+00 Coefficients=  1.0000000000D+00
 D 1 1.00
     Exponent=  6.5000000000D-01 Coefficients=  1.0000000000D+00
 F 1 1.00
     Exponent=  1.1000000000D+00 Coefficients=  1.0000000000D+00
 ****
 Ernie: Thresh=  0.10000D-02 Tol=  0.10000D-05 Strict=F.
 Ernie:  7 primitive shells out of 220 were deleted.
 There are   223 symmetry adapted cartesian basis functions of A'  symmetry.
 There are    97 symmetry adapted cartesian basis functions of A"  symmetry.
 There are   190 symmetry adapted basis functions of A'  symmetry.
 There are    90 symmetry adapted basis functions of A"  symmetry.
   280 basis functions,   475 primitive gaussians,   320 cartesian basis functions
    25 alpha electrons       25 beta electrons
       nuclear repulsion energy       276.9596755588 Hartrees.
 IExCor= 4336 DFT=T Ex+Corr=M062X ExCW=0 ScaHFX=  0.540000
 ScaDFX=  1.000000  1.000000  1.000000  1.000000 ScalE2=  1.000000  1.000000
 IRadAn=      0 IRanWt=     -1 IRanGd=            0 ICorTp=0 IEmpDi=  4
 NAtoms=   12 NActive=   12 NUniq=   12 SFac= 1.00D+00 NAtFMM=   60 NAOKFM=F Big=F
 Integral buffers will be    131072 words long.
 Raffenetti 2 integral format.
 Two-electron integral symmetry is turned on.
 Leave Link  301 at Sat Aug 28 00:50:37 2021, MaxMem= 17179869184 cpu:         3.8
 (Enter /public3/home/sc51754/softwares/g09e01/l302.exe)
 NPDir=0 NMtPBC=     1 NCelOv=     1 NCel=       1 NClECP=     1 NCelD=      1
         NCelK=      1 NCelE2=     1 NClLst=     1 CellRange=     0.0.
 One-electron integrals computed using PRISM.
 NBasis=   280 RedAO= T EigKep=  2.20D-04  NBF=   190    90
 NBsUse=   280 1.00D-06 EigRej= -1.00D+00 NBFU=   190    90
 Precomputing XC quadrature grid using
 IXCGrd= 4 IRadAn=           0 IRanWt=          -1 IRanGd=           0 AccXCQ= 0.00D+00.
 Generated NRdTot=       0 NPtTot=           0 NUsed=           0 NTot=          32
 NSgBfM=   320   320   320   320   320 MxSgAt=    12 MxSgA2=    12.
 Leave Link  302 at Sat Aug 28 00:50:38 2021, MaxMem= 17179869184 cpu:        50.5
 (Enter /public3/home/sc51754/softwares/g09e01/l303.exe)
 DipDrv:  MaxL=1.
 Leave Link  303 at Sat Aug 28 00:50:38 2021, MaxMem= 17179869184 cpu:         8.7
 (Enter /public3/home/sc51754/softwares/g09e01/l401.exe)
 ExpMin= 7.41D-02 ExpMax= 1.48D+04 ExpMxC= 5.05D+02 IAcc=2 IRadAn=         4 AccDes= 0.00D+00
 Harris functional with IExCor= 1009 and IRadAn=       4 diagonalized for initial guess.
 HarFok:  IExCor= 1009 AccDes= 0.00D+00 IRadAn=         4 IDoV= 1 UseB2=F ITyADJ=14
 ICtDFT=  3500011 ScaDFX=  1.000000  1.000000  1.000000  1.000000
 FoFCou: FMM=F IPFlag=           0 FMFlag=      100000 FMFlg1=           0
         NFxFlg=           0 DoJE=T BraDBF=F KetDBF=T FulRan=T
         wScrn=  0.000000 ICntrl=     500 IOpCl=  0 I1Cent=   200000004 NGrid=           0
         NMat0=    1 NMatS0=      1 NMatT0=    0 NMatD0=    1 NMtDS0=    0 NMtDT0=    0
 Petite list used in FoFCou.
 Harris En= -323.302966059437    
 JPrj=0 DoOrth=F DoCkMO=F.
 Initial guess orbital symmetries:
       Occupied  (A') (A') (A') (A') (A') (A') (A') (A') (A') (A')
                 (A') (A') (A') (A') (A') (A') (A') (A') (A") (A')
                 (A") (A') (A") (A') (A")
       Virtual   (A") (A") (A') (A') (A") (A') (A') (A') (A') (A')
                 (A') (A') (A") (A') (A') (A") (A") (A') (A') (A')
                 (A') (A') (A") (A') (A") (A') (A') (A') (A') (A')
                 (A') (A') (A") (A") (A') (A') (A') (A') (A') (A')
                 (A') (A') (A') (A") (A') (A") (A') (A') (A") (A")
                 (A') (A') (A') (A") (A") (A') (A") (A') (A') (A')
                 (A') (A") (A') (A') (A") (A') (A') (A") (A') (A")
                 (A') (A") (A") (A') (A") (A') (A') (A") (A') (A")
                 (A') (A") (A') (A') (A") (A') (A") (A') (A') (A")
                 (A') (A") (A') (A') (A') (A') (A') (A") (A') (A')
                 (A') (A') (A") (A') (A') (A') (A") (A') (A') (A')
                 (A") (A') (A') (A') (A') (A') (A") (A') (A') (A')
                 (A") (A') (A') (A") (A') (A") (A') (A") (A") (A')
                 (A") (A") (A') (A') (A") (A') (A') (A') (A") (A')
                 (A') (A') (A') (A") (A') (A") (A") (A') (A') (A')
                 (A') (A') (A') (A") (A") (A") (A") (A') (A') (A")
                 (A") (A') (A") (A') (A') (A") (A') (A") (A') (A')
                 (A") (A') (A") (A') (A") (A') (A') (A") (A") (A")
                 (A') (A") (A') (A') (A") (A') (A") (A") (A') (A")
                 (A") (A') (A") (A') (A') (A') (A") (A") (A') (A")
                 (A') (A') (A") (A") (A') (A') (A') (A") (A') (A')
                 (A') (A") (A') (A") (A') (A') (A") (A') (A') (A")
                 (A') (A") (A') (A') (A") (A') (A') (A") (A') (A')
                 (A') (A') (A") (A') (A') (A') (A') (A') (A") (A')
                 (A') (A') (A") (A') (A') (A') (A') (A') (A') (A')
                 (A') (A') (A') (A') (A')
 The electronic state of the initial guess is 1-A'.
 Leave Link  401 at Sat Aug 28 00:50:39 2021, MaxMem= 17179869184 cpu:        52.4
 (Enter /public3/home/sc51754/softwares/g09e01/l502.exe)
 Closed shell SCF:
 Using DIIS extrapolation, IDIIS=  1040.
 Integral symmetry usage will be decided dynamically.
 Keep R1 ints in memory in symmetry-blocked form, NReq=1167802198.
 IVT=      348658 IEndB=      348658 NGot= 17179869184 MDV= 16785904737
 LenX= 16785904737 LenY= 16785801896
 Requested convergence on RMS density matrix=1.00D-08 within 128 cycles.
 Requested convergence on MAX density matrix=1.00D-06.
 Requested convergence on             energy=1.00D-06.
 No special actions if energy rises.
 FoFCou: FMM=F IPFlag=           0 FMFlag=           0 FMFlg1=           0
         NFxFlg=           0 DoJE=F BraDBF=F KetDBF=F FulRan=T
         wScrn=  0.000000 ICntrl=     600 IOpCl=  0 I1Cent=           0 NGrid=           0
         NMat0=    1 NMatS0=  39340 NMatT0=    0 NMatD0=    1 NMtDS0=    0 NMtDT0=    0
 Petite list used in FoFCou.
 Integral accuracy reduced to 1.0D-05 until final iterations.

 Cycle   1  Pass 0  IDiag  1:
 E= -323.268830257747    
 DIIS: error= 2.72D-02 at cycle   1 NSaved=   1.
 NSaved= 1 IEnMin= 1 EnMin= -323.268830257747     IErMin= 1 ErrMin= 2.72D-02
 ErrMax= 2.72D-02  0.00D+00 EMaxC= 1.00D-01 BMatC= 2.07D-01 BMatP= 2.07D-01
 IDIUse=3 WtCom= 7.28D-01 WtEn= 2.72D-01
 Coeff-Com:  0.100D+01
 Coeff-En:   0.100D+01
 Coeff:      0.100D+01
 Gap=     0.217 Goal=   None    Shift=    0.000
 GapD=    0.217 DampG=1.000 DampE=0.500 DampFc=0.5000 IDamp=-1.
 Damping current iteration by 5.00D-01
 RMSDP=2.41D-03 MaxDP=1.20D-01              OVMax= 1.68D-01

 Cycle   2  Pass 0  IDiag  1:
 E= -323.351561454045     Delta-E=       -0.082731196298 Rises=F Damp=T
 DIIS: error= 6.70D-03 at cycle   2 NSaved=   2.
 NSaved= 2 IEnMin= 2 EnMin= -323.351561454045     IErMin= 2 ErrMin= 6.70D-03
 ErrMax= 6.70D-03  0.00D+00 EMaxC= 1.00D-01 BMatC= 1.95D-02 BMatP= 2.07D-01
 IDIUse=3 WtCom= 9.33D-01 WtEn= 6.70D-02
 Coeff-Com: -0.254D-01 0.103D+01
 Coeff-En:   0.000D+00 0.100D+01
 Coeff:     -0.237D-01 0.102D+01
 Gap=     0.297 Goal=   None    Shift=    0.000
 RMSDP=6.53D-04 MaxDP=2.82D-02 DE=-8.27D-02 OVMax= 1.21D-01

 Cycle   3  Pass 0  IDiag  1:
 E= -323.430782000782     Delta-E=       -0.079220546736 Rises=F Damp=F
 DIIS: error= 7.43D-03 at cycle   3 NSaved=   3.
 NSaved= 3 IEnMin= 3 EnMin= -323.430782000782     IErMin= 2 ErrMin= 6.70D-03
 ErrMax= 7.43D-03  0.00D+00 EMaxC= 1.00D-01 BMatC= 1.65D-02 BMatP= 1.95D-02
 IDIUse=3 WtCom= 9.26D-01 WtEn= 7.43D-02
 Coeff-Com: -0.923D-01 0.529D+00 0.563D+00
 Coeff-En:   0.000D+00 0.000D+00 0.100D+01
 Coeff:     -0.854D-01 0.490D+00 0.596D+00
 Gap=     0.277 Goal=   None    Shift=    0.000
 RMSDP=3.89D-04 MaxDP=1.97D-02 DE=-7.92D-02 OVMax= 5.01D-02

 Cycle   4  Pass 0  IDiag  1:
 E= -323.440580274744     Delta-E=       -0.009798273963 Rises=F Damp=F
 DIIS: error= 3.32D-03 at cycle   4 NSaved=   4.
 NSaved= 4 IEnMin= 4 EnMin= -323.440580274744     IErMin= 4 ErrMin= 3.32D-03
 ErrMax= 3.32D-03  0.00D+00 EMaxC= 1.00D-01 BMatC= 3.94D-03 BMatP= 1.65D-02
 IDIUse=3 WtCom= 9.67D-01 WtEn= 3.32D-02
 Coeff-Com: -0.383D-01 0.108D+00 0.357D+00 0.573D+00
 Coeff-En:   0.000D+00 0.000D+00 0.222D+00 0.778D+00
 Coeff:     -0.370D-01 0.104D+00 0.353D+00 0.580D+00
 Gap=     0.281 Goal=   None    Shift=    0.000
 RMSDP=1.43D-04 MaxDP=8.14D-03 DE=-9.80D-03 OVMax= 1.61D-02

 Cycle   5  Pass 0  IDiag  1:
 E= -323.443755931563     Delta-E=       -0.003175656818 Rises=F Damp=F
 DIIS: error= 3.79D-04 at cycle   5 NSaved=   5.
 NSaved= 5 IEnMin= 5 EnMin= -323.443755931563     IErMin= 5 ErrMin= 3.79D-04
 ErrMax= 3.79D-04  0.00D+00 EMaxC= 1.00D-01 BMatC= 5.89D-05 BMatP= 3.94D-03
 IDIUse=3 WtCom= 9.96D-01 WtEn= 3.79D-03
 Coeff-Com: -0.896D-02 0.147D-01 0.100D+00 0.212D+00 0.682D+00
 Coeff-En:   0.000D+00 0.000D+00 0.000D+00 0.000D+00 0.100D+01
 Coeff:     -0.893D-02 0.147D-01 0.996D-01 0.211D+00 0.684D+00
 Gap=     0.280 Goal=   None    Shift=    0.000
 RMSDP=2.64D-05 MaxDP=1.73D-03 DE=-3.18D-03 OVMax= 3.52D-03

 Cycle   6  Pass 0  IDiag  1:
 E= -323.443801446142     Delta-E=       -0.000045514579 Rises=F Damp=F
 DIIS: error= 2.57D-04 at cycle   6 NSaved=   6.
 NSaved= 6 IEnMin= 6 EnMin= -323.443801446142     IErMin= 6 ErrMin= 2.57D-04
 ErrMax= 2.57D-04  0.00D+00 EMaxC= 1.00D-01 BMatC= 1.04D-05 BMatP= 5.89D-05
 IDIUse=3 WtCom= 9.97D-01 WtEn= 2.57D-03
 Coeff-Com: -0.184D-02-0.918D-04 0.255D-01 0.670D-01 0.354D+00 0.556D+00
 Coeff-En:   0.000D+00 0.000D+00 0.000D+00 0.000D+00 0.787D-01 0.921D+00
 Coeff:     -0.183D-02-0.916D-04 0.254D-01 0.668D-01 0.353D+00 0.557D+00
 Gap=     0.280 Goal=   None    Shift=    0.000
 RMSDP=9.26D-06 MaxDP=4.26D-04 DE=-4.55D-05 OVMax= 1.29D-03

 Initial convergence to 1.0D-05 achieved.  Increase integral accuracy.
 Cycle   7  Pass 1  IDiag  1:
 E= -323.443932309595     Delta-E=       -0.000130863453 Rises=F Damp=F
 DIIS: error= 2.22D-04 at cycle   1 NSaved=   1.
 NSaved= 1 IEnMin= 1 EnMin= -323.443932309595     IErMin= 1 ErrMin= 2.22D-04
 ErrMax= 2.22D-04  0.00D+00 EMaxC= 1.00D-01 BMatC= 1.92D-05 BMatP= 1.92D-05
 IDIUse=3 WtCom= 9.98D-01 WtEn= 2.22D-03
 Coeff-Com:  0.100D+01
 Coeff-En:   0.100D+01
 Coeff:      0.100D+01
 Gap=     0.280 Goal=   None    Shift=    0.000
 RMSDP=9.26D-06 MaxDP=4.26D-04 DE=-1.31D-04 OVMax= 6.04D-04

 Cycle   8  Pass 1  IDiag  1:
 E= -323.443940873572     Delta-E=       -0.000008563977 Rises=F Damp=F
 DIIS: error= 5.79D-05 at cycle   2 NSaved=   2.
 NSaved= 2 IEnMin= 2 EnMin= -323.443940873572     IErMin= 2 ErrMin= 5.79D-05
 ErrMax= 5.79D-05  0.00D+00 EMaxC= 1.00D-01 BMatC= 8.30D-07 BMatP= 1.92D-05
 IDIUse=1 WtCom= 1.00D+00 WtEn= 0.00D+00
 Coeff-Com:  0.334D-01 0.967D+00
 Coeff:      0.334D-01 0.967D+00
 Gap=     0.280 Goal=   None    Shift=    0.000
 RMSDP=5.73D-06 MaxDP=2.07D-04 DE=-8.56D-06 OVMax= 8.69D-04

 Cycle   9  Pass 1  IDiag  1:
 E= -323.443940237763     Delta-E=        0.000000635809 Rises=F Damp=F
 DIIS: error= 8.79D-05 at cycle   3 NSaved=   3.
 NSaved= 3 IEnMin= 2 EnMin= -323.443940873572     IErMin= 2 ErrMin= 5.79D-05
 ErrMax= 8.79D-05  0.00D+00 EMaxC= 1.00D-01 BMatC= 1.64D-06 BMatP= 8.30D-07
 IDIUse=1 WtCom= 1.00D+00 WtEn= 0.00D+00
 Coeff-Com: -0.236D-01 0.598D+00 0.426D+00
 Coeff:     -0.236D-01 0.598D+00 0.426D+00
 Gap=     0.280 Goal=   None    Shift=    0.000
 RMSDP=3.13D-06 MaxDP=1.25D-04 DE= 6.36D-07 OVMax= 4.55D-04

 Cycle  10  Pass 1  IDiag  1:
 E= -323.443941755852     Delta-E=       -0.000001518089 Rises=F Damp=F
 DIIS: error= 6.61D-06 at cycle   4 NSaved=   4.
 NSaved= 4 IEnMin= 4 EnMin= -323.443941755852     IErMin= 4 ErrMin= 6.61D-06
 ErrMax= 6.61D-06  0.00D+00 EMaxC= 1.00D-01 BMatC= 1.51D-08 BMatP= 8.30D-07
 IDIUse=1 WtCom= 1.00D+00 WtEn= 0.00D+00
 Coeff-Com: -0.105D-01 0.201D+00 0.152D+00 0.658D+00
 Coeff:     -0.105D-01 0.201D+00 0.152D+00 0.658D+00
 Gap=     0.280 Goal=   None    Shift=    0.000
 RMSDP=4.75D-07 MaxDP=2.05D-05 DE=-1.52D-06 OVMax= 5.01D-05

 Cycle  11  Pass 1  IDiag  1:
 E= -323.443941764872     Delta-E=       -0.000000009020 Rises=F Damp=F
 DIIS: error= 5.95D-06 at cycle   5 NSaved=   5.
 NSaved= 5 IEnMin= 5 EnMin= -323.443941764872     IErMin= 5 ErrMin= 5.95D-06
 ErrMax= 5.95D-06  0.00D+00 EMaxC= 1.00D-01 BMatC= 7.73D-09 BMatP= 1.51D-08
 IDIUse=1 WtCom= 1.00D+00 WtEn= 0.00D+00
 Coeff-Com: -0.188D-03-0.354D-01-0.245D-01 0.419D+00 0.642D+00
 Coeff:     -0.188D-03-0.354D-01-0.245D-01 0.419D+00 0.642D+00
 Gap=     0.280 Goal=   None    Shift=    0.000
 RMSDP=2.66D-07 MaxDP=1.24D-05 DE=-9.02D-09 OVMax= 4.22D-05

 Cycle  12  Pass 1  IDiag  1:
 E= -323.443941772623     Delta-E=       -0.000000007751 Rises=F Damp=F
 DIIS: error= 1.66D-06 at cycle   6 NSaved=   6.
 NSaved= 6 IEnMin= 6 EnMin= -323.443941772623     IErMin= 6 ErrMin= 1.66D-06
 ErrMax= 1.66D-06  0.00D+00 EMaxC= 1.00D-01 BMatC= 3.19D-10 BMatP= 7.73D-09
 IDIUse=1 WtCom= 1.00D+00 WtEn= 0.00D+00
 Coeff-Com:  0.125D-02-0.339D-01-0.262D-01 0.350D-01 0.190D+00 0.834D+00
 Coeff:      0.125D-02-0.339D-01-0.262D-01 0.350D-01 0.190D+00 0.834D+00
 Gap=     0.280 Goal=   None    Shift=    0.000
 RMSDP=9.91D-08 MaxDP=2.57D-06 DE=-7.75D-09 OVMax= 1.42D-05

 Cycle  13  Pass 1  IDiag  1:
 E= -323.443941773183     Delta-E=       -0.000000000560 Rises=F Damp=F
 DIIS: error= 4.59D-07 at cycle   7 NSaved=   7.
 NSaved= 7 IEnMin= 7 EnMin= -323.443941773183     IErMin= 7 ErrMin= 4.59D-07
 ErrMax= 4.59D-07  0.00D+00 EMaxC= 1.00D-01 BMatC= 4.58D-11 BMatP= 3.19D-10
 IDIUse=1 WtCom= 1.00D+00 WtEn= 0.00D+00
 Coeff-Com:  0.427D-03-0.657D-02-0.601D-02-0.415D-01-0.139D-01 0.295D+00
 Coeff-Com:  0.772D+00
 Coeff:      0.427D-03-0.657D-02-0.601D-02-0.415D-01-0.139D-01 0.295D+00
 Coeff:      0.772D+00
 Gap=     0.280 Goal=   None    Shift=    0.000
 RMSDP=3.66D-08 MaxDP=1.48D-06 DE=-5.60D-10 OVMax= 7.16D-06

 Cycle  14  Pass 1  IDiag  1:
 E= -323.443941773273     Delta-E=       -0.000000000090 Rises=F Damp=F
 DIIS: error= 2.57D-07 at cycle   8 NSaved=   8.
 NSaved= 8 IEnMin= 8 EnMin= -323.443941773273     IErMin= 8 ErrMin= 2.57D-07
 ErrMax= 2.57D-07  0.00D+00 EMaxC= 1.00D-01 BMatC= 6.10D-12 BMatP= 4.58D-11
 IDIUse=1 WtCom= 1.00D+00 WtEn= 0.00D+00
 Coeff-Com: -0.289D-04 0.296D-02 0.198D-02-0.214D-01-0.359D-01-0.413D-01
 Coeff-Com:  0.259D+00 0.835D+00
 Coeff:     -0.289D-04 0.296D-02 0.198D-02-0.214D-01-0.359D-01-0.413D-01
 Coeff:      0.259D+00 0.835D+00
 Gap=     0.280 Goal=   None    Shift=    0.000
 RMSDP=1.50D-08 MaxDP=4.94D-07 DE=-9.05D-11 OVMax= 2.80D-06

 Cycle  15  Pass 1  IDiag  1:
 E= -323.443941773277     Delta-E=       -0.000000000004 Rises=F Damp=F
 DIIS: error= 6.86D-08 at cycle   9 NSaved=   9.
 NSaved= 9 IEnMin= 9 EnMin= -323.443941773277     IErMin= 9 ErrMin= 6.86D-08
 ErrMax= 6.86D-08  0.00D+00 EMaxC= 1.00D-01 BMatC= 9.66D-13 BMatP= 6.10D-12
 IDIUse=1 WtCom= 1.00D+00 WtEn= 0.00D+00
 Coeff-Com: -0.406D-04 0.166D-02 0.132D-02-0.495D-02-0.124D-01-0.373D-01
 Coeff-Com:  0.581D-01 0.375D+00 0.619D+00
 Coeff:     -0.406D-04 0.166D-02 0.132D-02-0.495D-02-0.124D-01-0.373D-01
 Coeff:      0.581D-01 0.375D+00 0.619D+00
 Gap=     0.280 Goal=   None    Shift=    0.000
 RMSDP=3.61D-09 MaxDP=1.48D-07 DE=-3.87D-12 OVMax= 6.55D-07

 SCF Done:  E(RM062X) =  -323.443941773     A.U. after   15 cycles
            NFock= 15  Conv=0.36D-08     -V/T= 2.0046
 KE= 3.219629092797D+02 PE=-1.308137454742D+03 EE= 3.857709281301D+02
 Leave Link  502 at Sat Aug 28 00:50:49 2021, MaxMem= 17179869184 cpu:       377.4
 (Enter /public3/home/sc51754/softwares/g09e01/l801.exe)
 DoSCS=F DFT=T ScalE2(SS,OS)=  1.000000  1.000000
 Range of M.O.s used for correlation:     1   280
 NBasis=   280 NAE=    25 NBE=    25 NFC=     0 NFV=     0
 NROrb=    280 NOA=    25 NOB=    25 NVA=   255 NVB=   255

 **** Warning!!: The largest alpha MO coefficient is  0.19467140D+02

 Leave Link  801 at Sat Aug 28 00:50:49 2021, MaxMem= 17179869184 cpu:         0.5
 (Enter /public3/home/sc51754/softwares/g09e01/l1101.exe)
 Using compressed storage, NAtomX=    12.
 Will process     13 centers per pass.
 Leave Link 1101 at Sat Aug 28 00:50:50 2021, MaxMem= 17179869184 cpu:        50.6
 (Enter /public3/home/sc51754/softwares/g09e01/l1102.exe)
 Symmetrizing basis deriv contribution to polar:
 IMax=3 JMax=2 DiffMx= 0.00D+00
 Leave Link 1102 at Sat Aug 28 00:50:52 2021, MaxMem= 17179869184 cpu:         9.2
 (Enter /public3/home/sc51754/softwares/g09e01/l1110.exe)
 Forming Gx(P) for the SCF density, NAtomX=    12.
 Integral derivatives from FoFJK, PRISM(SPDF).
 Do as many integral derivatives as possible in FoFJK.
 G2DrvN: MDV=   17179868984.
 G2DrvN: will do    13 centers at a time, making    1 passes.
 Calling FoFCou, ICntrl=  3107 FMM=F I1Cent=   0 AccDes= 0.00D+00.
 FoFJK:  IHMeth= 1 ICntrl=    3107 DoSepK=F KAlg= 0 I1Cent=   0 FoldK=F
 IRaf=         0 NMat=   1 IRICut=       1 DoRegI=T DoRafI=F ISym2E= 1.
 FoFCou: FMM=F IPFlag=           0 FMFlag=      100000 FMFlg1=           0
         NFxFlg=           0 DoJE=F BraDBF=F KetDBF=F FulRan=T
         wScrn=  0.000000 ICntrl=    3107 IOpCl=  0 I1Cent=           0 NGrid=           0
         NMat0=    1 NMatS0=      1 NMatT0=    0 NMatD0=    1 NMtDS0=    0 NMtDT0=    0
 Petite list used in FoFCou.
 End of G2Drv F.D. properties file   721 does not exist.
 End of G2Drv F.D. properties file   722 does not exist.
 End of G2Drv F.D. properties file   788 does not exist.
 Leave Link 1110 at Sat Aug 28 00:51:00 2021, MaxMem= 17179869184 cpu:       448.0
 (Enter /public3/home/sc51754/softwares/g09e01/l1002.exe)
 Minotr:  Closed shell wavefunction.
          IDoAtm=111111111111
          Direct CPHF calculation.
          Differentiating once with respect to nuclear coordinates.
          Using symmetry in CPHF.
          Requested convergence is 1.0D-08 RMS, and 1.0D-07 maximum.
          Secondary convergence is 1.0D-12 RMS, and 1.0D-12 maximum.
          NewPWx=T KeepS1=F KeepF1=F KeepIn=T MapXYZ=F SortEE=F KeepMc=T.
          MDV=   17179868780 using IRadAn=       2.
 Generate precomputed XC quadrature information.
 Keep R1 ints in memory in symmetry-blocked form, NReq=1167458725.
 FoFCou: FMM=F IPFlag=           0 FMFlag=           0 FMFlg1=           0
         NFxFlg=           0 DoJE=F BraDBF=F KetDBF=F FulRan=T
         wScrn=  0.000000 ICntrl=     600 IOpCl=  0 I1Cent=           0 NGrid=           0
         NMat0=    1 NMatS0=  39340 NMatT0=    0 NMatD0=    1 NMtDS0=    0 NMtDT0=    0
 Petite list used in FoFCou.
          Solving linear equations simultaneously, MaxMat=       0.
          There are    39 degrees of freedom in the 1st order CPHF.  IDoFFX=6 NUNeed=     0.
     33 vectors produced by pass  0 Test12= 1.63D-14 2.56D-09 XBig12= 9.77D-02 8.68D-02.
 AX will form    33 AO Fock derivatives at one time.
     33 vectors produced by pass  1 Test12= 1.63D-14 2.56D-09 XBig12= 9.86D-03 3.49D-02.
     33 vectors produced by pass  2 Test12= 1.63D-14 2.56D-09 XBig12= 3.33D-04 3.88D-03.
     33 vectors produced by pass  3 Test12= 1.63D-14 2.56D-09 XBig12= 4.30D-06 3.78D-04.
     33 vectors produced by pass  4 Test12= 1.63D-14 2.56D-09 XBig12= 3.94D-08 3.53D-05.
     33 vectors produced by pass  5 Test12= 1.63D-14 2.56D-09 XBig12= 2.45D-10 2.41D-06.
     29 vectors produced by pass  6 Test12= 1.63D-14 2.56D-09 XBig12= 1.18D-12 1.52D-07.
     12 vectors produced by pass  7 Test12= 1.63D-14 2.56D-09 XBig12= 5.21D-15 8.68D-09.
 InvSVY:  IOpt=1 It=  1 EMax= 1.22D-15
 Solved reduced A of dimension   239 with    33 vectors.
 End of Minotr F.D. properties file   721 does not exist.
 End of Minotr F.D. properties file   722 does not exist.
 End of Minotr F.D. properties file   788 does not exist.
 Leave Link 1002 at Sat Aug 28 00:51:16 2021, MaxMem= 17179869184 cpu:      1007.2
 (Enter /public3/home/sc51754/softwares/g09e01/l601.exe)
 Copying SCF densities to generalized density rwf, IOpCl= 0 IROHF=0.

 **********************************************************************

            Population analysis using the SCF density.

 **********************************************************************

 Orbital symmetries:
       Occupied  (A') (A') (A') (A') (A') (A') (A') (A') (A') (A')
                 (A') (A') (A') (A') (A') (A') (A") (A') (A') (A')
                 (A") (A') (A') (A") (A")
       Virtual   (A") (A") (A') (A') (A') (A') (A') (A') (A") (A')
                 (A') (A") (A') (A') (A') (A") (A") (A') (A') (A")
                 (A') (A') (A") (A') (A') (A') (A') (A') (A') (A')
                 (A") (A') (A') (A') (A") (A') (A') (A') (A') (A')
                 (A') (A') (A") (A') (A') (A') (A") (A') (A") (A")
                 (A') (A') (A') (A") (A") (A") (A') (A') (A') (A')
                 (A') (A') (A') (A") (A') (A") (A') (A') (A') (A")
                 (A") (A") (A') (A") (A") (A') (A') (A") (A') (A')
                 (A") (A') (A") (A') (A') (A") (A") (A') (A') (A')
                 (A") (A") (A') (A') (A') (A') (A') (A") (A') (A')
                 (A') (A') (A") (A') (A') (A") (A') (A') (A') (A')
                 (A") (A') (A') (A') (A') (A') (A') (A") (A') (A')
                 (A") (A') (A') (A") (A') (A") (A') (A") (A") (A')
                 (A") (A") (A') (A") (A') (A') (A') (A') (A") (A')
                 (A') (A') (A") (A') (A') (A") (A') (A") (A') (A')
                 (A") (A') (A') (A') (A") (A") (A") (A') (A") (A')
                 (A") (A') (A") (A') (A") (A') (A') (A") (A') (A')
                 (A") (A") (A') (A') (A") (A') (A") (A') (A") (A")
                 (A') (A") (A') (A') (A") (A') (A") (A") (A") (A')
                 (A") (A") (A') (A') (A') (A') (A") (A") (A') (A")
                 (A') (A") (A') (A") (A') (A') (A') (A") (A') (A')
                 (A') (A") (A') (A") (A') (A') (A') (A") (A') (A")
                 (A") (A') (A') (A') (A") (A') (A') (A") (A') (A')
                 (A') (A') (A") (A') (A') (A') (A') (A') (A") (A')
                 (A') (A') (A') (A") (A') (A') (A') (A') (A') (A')
                 (A') (A') (A') (A') (A')
 The electronic state is 1-A'.
 Alpha  occ. eigenvalues --  -19.63617 -14.78536 -10.64259 -10.60262 -10.57311
 Alpha  occ. eigenvalues --  -10.55637 -10.55321  -1.16519  -1.06371  -0.92790
 Alpha  occ. eigenvalues --   -0.86064  -0.75593  -0.71336  -0.62217  -0.59119
 Alpha  occ. eigenvalues --   -0.55079  -0.52811  -0.51025  -0.50658  -0.45282
 Alpha  occ. eigenvalues --   -0.42225  -0.40570  -0.38274  -0.37011  -0.29500
 Alpha virt. eigenvalues --   -0.01495   0.02150   0.02309   0.04267   0.05635
 Alpha virt. eigenvalues --    0.07294   0.09149   0.14866   0.16683   0.16769
 Alpha virt. eigenvalues --    0.18045   0.18512   0.20203   0.21096   0.22374
 Alpha virt. eigenvalues --    0.22594   0.23334   0.27028   0.27642   0.29702
 Alpha virt. eigenvalues --    0.30283   0.31807   0.32396   0.32534   0.34625
 Alpha virt. eigenvalues --    0.36691   0.38974   0.39981   0.40212   0.42578
 Alpha virt. eigenvalues --    0.45707   0.46259   0.46577   0.47879   0.48123
 Alpha virt. eigenvalues --    0.52825   0.53703   0.54251   0.57840   0.61886
 Alpha virt. eigenvalues --    0.65712   0.66210   0.68203   0.69148   0.70236
 Alpha virt. eigenvalues --    0.71447   0.74121   0.75268   0.80847   0.84252
 Alpha virt. eigenvalues --    0.86529   0.92728   0.93774   0.94680   0.97802
 Alpha virt. eigenvalues --    0.99052   0.99533   1.00787   1.02124   1.04274
 Alpha virt. eigenvalues --    1.05019   1.11709   1.13470   1.13786   1.18230
 Alpha virt. eigenvalues --    1.18413   1.19445   1.19945   1.25209   1.25288
 Alpha virt. eigenvalues --    1.26875   1.30819   1.31570   1.33545   1.34719
 Alpha virt. eigenvalues --    1.40032   1.44304   1.45193   1.45381   1.50731
 Alpha virt. eigenvalues --    1.53822   1.54821   1.55084   1.56868   1.59333
 Alpha virt. eigenvalues --    1.60571   1.63967   1.64230   1.68693   1.69254
 Alpha virt. eigenvalues --    1.70438   1.72335   1.73877   1.75618   1.79356
 Alpha virt. eigenvalues --    1.80619   1.83576   1.88817   1.89005   1.89466
 Alpha virt. eigenvalues --    1.93999   1.95842   2.02229   2.03495   2.04560
 Alpha virt. eigenvalues --    2.13358   2.13907   2.16599   2.20682   2.22199
 Alpha virt. eigenvalues --    2.25883   2.26383   2.27806   2.29995   2.33472
 Alpha virt. eigenvalues --    2.36862   2.45932   2.46353   2.66950   2.70158
 Alpha virt. eigenvalues --    2.86171   2.88960   2.96197   2.97313   3.06003
 Alpha virt. eigenvalues --    3.13802   3.18351   3.18391   3.25548   3.27588
 Alpha virt. eigenvalues --    3.27989   3.29918   3.34449   3.36962   3.38569
 Alpha virt. eigenvalues --    3.41178   3.42427   3.47924   3.49573   3.55429
 Alpha virt. eigenvalues --    3.57454   3.58396   3.58719   3.60142   3.63148
 Alpha virt. eigenvalues --    3.65869   3.72670   3.73109   3.76269   3.82113
 Alpha virt. eigenvalues --    3.87191   3.88041   3.89409   3.90967   3.91841
 Alpha virt. eigenvalues --    3.93151   3.97142   4.01416   4.03336   4.03624
 Alpha virt. eigenvalues --    4.05622   4.08924   4.10421   4.10484   4.14631
 Alpha virt. eigenvalues --    4.15706   4.17331   4.17395   4.18717   4.19954
 Alpha virt. eigenvalues --    4.20968   4.24204   4.25080   4.25818   4.28589
 Alpha virt. eigenvalues --    4.29786   4.30342   4.31222   4.33163   4.36880
 Alpha virt. eigenvalues --    4.38157   4.40008   4.40043   4.40296   4.42381
 Alpha virt. eigenvalues --    4.44667   4.44683   4.45827   4.51171   4.51523
 Alpha virt. eigenvalues --    4.53732   4.55910   4.58056   4.60160   4.62369
 Alpha virt. eigenvalues --    4.67844   4.69525   4.71687   4.72560   4.78791
 Alpha virt. eigenvalues --    4.79329   4.87381   4.88247   4.89099   4.93168
 Alpha virt. eigenvalues --    4.98306   5.01339   5.05991   5.09667   5.11210
 Alpha virt. eigenvalues --    5.13609   5.20281   5.20472   5.22774   5.23804
 Alpha virt. eigenvalues --    5.26909   5.29399   5.30662   5.32860   5.36717
 Alpha virt. eigenvalues --    5.37073   5.37571   5.40423   5.45090   5.48465
 Alpha virt. eigenvalues --    5.49760   5.58105   5.58835   5.59341   5.65989
 Alpha virt. eigenvalues --    5.68643   5.74473   5.76307   5.80394   5.93803
 Alpha virt. eigenvalues --    5.98965   6.03078   6.05700   6.24723   6.24994
 Alpha virt. eigenvalues --    6.33253   6.39449   6.45126   6.50514   6.56971
 Alpha virt. eigenvalues --    6.82093   6.97910   7.09456   9.28195  11.78272
 Alpha virt. eigenvalues --   12.48990  14.59906  17.36612  18.40823  22.18626
          Condensed to atoms (all electrons):
               1          2          3          4          5          6
     1  O    8.183667  -0.135163   0.347662  -0.059317   0.001074   0.005139
     2  N   -0.135163   6.814610   0.366717  -0.011551   0.500679  -0.036194
     3  C    0.347662   0.366717   4.402050   0.515391  -0.089039  -0.054928
     4  C   -0.059317  -0.011551   0.515391   4.819474  -0.046032   0.540486
     5  C    0.001074   0.500679  -0.089039  -0.046032   4.509872  -0.082306
     6  C    0.005139  -0.036194  -0.054928   0.540486  -0.082306   4.657463
     7  C   -0.000030  -0.025661  -0.050782  -0.060228   0.560730   0.487205
     8  H    0.212837   0.077160  -0.043100   0.021893   0.000121  -0.005666
     9  H    0.004202   0.006975  -0.034328   0.445441  -0.002513  -0.034889
    10  H   -0.000625  -0.037170   0.003913  -0.002933   0.442104   0.007499
    11  H   -0.000482  -0.001776   0.008224  -0.034181   0.007866   0.436188
    12  H    0.000049   0.006540  -0.001239   0.007284  -0.031050  -0.034049
               7          8          9         10         11         12
     1  O   -0.000030   0.212837   0.004202  -0.000625  -0.000482   0.000049
     2  N   -0.025661   0.077160   0.006975  -0.037170  -0.001776   0.006540
     3  C   -0.050782  -0.043100  -0.034328   0.003913   0.008224  -0.001239
     4  C   -0.060228   0.021893   0.445441  -0.002933  -0.034181   0.007284
     5  C    0.560730   0.000121  -0.002513   0.442104   0.007866  -0.031050
     6  C    0.487205  -0.005666  -0.034889   0.007499   0.436188  -0.034049
     7  C    4.910538   0.003340   0.007543  -0.058282  -0.043805   0.442994
     8  H    0.003340   0.440854  -0.000486  -0.002529   0.000164  -0.000111
     9  H    0.007543  -0.000486   0.584451   0.000179  -0.007653   0.000036
    10  H   -0.058282  -0.002529   0.000179   0.613755  -0.000034  -0.006089
    11  H   -0.043805   0.000164  -0.007653  -0.000034   0.610011  -0.007727
    12  H    0.442994  -0.000111   0.000036  -0.006089  -0.007727   0.601880
 Mulliken charges:
               1
     1  O   -0.559013
     2  N   -0.525167
     3  C    0.629459
     4  C   -0.135727
     5  C    0.228494
     6  C    0.114052
     7  C   -0.173561
     8  H    0.295523
     9  H    0.031042
    10  H    0.040212
    11  H    0.033205
    12  H    0.021482
 Sum of Mulliken charges =  -0.00000
 Mulliken charges with hydrogens summed into heavy atoms:
               1
     1  O   -0.263490
     2  N   -0.525167
     3  C    0.629459
     4  C   -0.104685
     5  C    0.268705
     6  C    0.147257
     7  C   -0.152079
 APT charges:
               1
     1  O   -0.343415
     2  N   -0.488282
     3  C    0.292906
     4  C   -0.531778
     5  C   -0.285900
     6  C   -0.294350
     7  C   -0.513568
     8  H    0.336895
     9  H    0.402003
    10  H    0.453904
    11  H    0.465964
    12  H    0.505622
 Sum of APT charges =  -0.00000
 APT charges with hydrogens summed into heavy atoms:
               1
     1  O   -0.006520
     2  N   -0.488282
     3  C    0.292906
     4  C   -0.129775
     5  C    0.168004
     6  C    0.171614
     7  C   -0.007947
 Electronic spatial extent (au):  <R**2>=            622.2549
 Charge=             -0.0000 electrons
 Dipole moment (field-independent basis, Debye):
    X=             -0.0198    Y=             -3.2093    Z=              0.0000  Tot=              3.2093
 Quadrupole moment (field-independent basis, Debye-Ang):
   XX=            -35.4663   YY=            -43.4528   ZZ=            -43.4621
   XY=             -1.2027   XZ=             -0.0000   YZ=              0.0000
 Traceless Quadrupole moment (field-independent basis, Debye-Ang):
   XX=              5.3274   YY=             -2.6590   ZZ=             -2.6684
   XY=             -1.2027   XZ=             -0.0000   YZ=              0.0000
 Octapole moment (field-independent basis, Debye-Ang**2):
  XXX=              2.7319  YYY=            -21.5385  ZZZ=             -0.0000  XYY=             -5.2284
  XXY=              0.8557  XXZ=             -0.0000  XZZ=             -1.2771  YZZ=              4.3655
  YYZ=              0.0000  XYZ=              0.0000
 Hexadecapole moment (field-independent basis, Debye-Ang**3):
 XXXX=           -259.7453 YYYY=           -518.1197 ZZZZ=            -46.9273 XXXY=              8.0932
 XXXZ=             -0.0000 YYYX=             -6.2937 YYYZ=              0.0000 ZZZX=             -0.0000
 ZZZY=              0.0000 XXYY=           -109.4806 XXZZ=            -60.1664 YYZZ=            -97.9025
 XXYZ=              0.0000 YYXZ=             -0.0000 ZZXY=              1.8444
 N-N= 2.769596755588D+02 E-N=-1.308137447122D+03  KE= 3.219629092797D+02
 Symmetry A'   KE= 3.104589433845D+02
 Symmetry A"   KE= 1.150396589524D+01
  Exact polarizability:   0.000   0.000   0.000   0.000   0.000   0.000
 Approx polarizability: 101.367   3.723 116.417   0.000  -0.000  49.521
 No NMR shielding tensors so no spin-rotation constants.
 Leave Link  601 at Sat Aug 28 00:51:17 2021, MaxMem= 17179869184 cpu:        43.0
 (Enter /public3/home/sc51754/softwares/g09e01/l701.exe)
 Compute integral second derivatives.
 ... and contract with generalized density number  0.
 Leave Link  701 at Sat Aug 28 00:51:17 2021, MaxMem= 17179869184 cpu:        45.1
 (Enter /public3/home/sc51754/softwares/g09e01/l702.exe)
 L702 exits ... SP integral derivatives will be done elsewhere.
 Leave Link  702 at Sat Aug 28 00:51:18 2021, MaxMem= 17179869184 cpu:         0.8
 (Enter /public3/home/sc51754/softwares/g09e01/l703.exe)
 Compute integral second derivatives, UseDBF=F ICtDFT=           0.
 Integral derivatives from FoFJK, PRISM(SPDF).
 Calling FoFJK, ICntrl=    100147 FMM=F ISym2X=1 I1Cent= 0 IOpClX= 0 NMat=1 NMatS=1 NMatT=0.
 FoFJK:  IHMeth= 1 ICntrl=  100147 DoSepK=F KAlg= 0 I1Cent=   0 FoldK=F
 IRaf=         0 NMat=   1 IRICut=       1 DoRegI=T DoRafI=F ISym2E= 1.
 FoFCou: FMM=F IPFlag=           0 FMFlag=      100000 FMFlg1=         800
         NFxFlg=           0 DoJE=F BraDBF=F KetDBF=F FulRan=T
         wScrn=  0.000000 ICntrl=  100147 IOpCl=  0 I1Cent=           0 NGrid=           0
         NMat0=    1 NMatS0=      1 NMatT0=    0 NMatD0=    1 NMtDS0=    0 NMtDT0=    0
 Petite list used in FoFCou.
 Leave Link  703 at Sat Aug 28 00:51:27 2021, MaxMem= 17179869184 cpu:       592.3
 (Enter /public3/home/sc51754/softwares/g09e01/l716.exe)
 Dipole        =-7.79183205D-03-1.26262595D+00 6.09949217D-32
 Polarizability= 0.00000000D+00 0.00000000D+00 0.00000000D+00
                 0.00000000D+00 0.00000000D+00 0.00000000D+00
 ***** Axes restored to original set *****
 -------------------------------------------------------------------
 Center     Atomic                   Forces (Hartrees/Bohr)
 Number     Number              X              Y              Z
 -------------------------------------------------------------------
      1        8          -0.095816608   -0.059529053   -0.000000000
      2        7           0.006038391    0.018668225   -0.000000000
      3        6           0.050452037    0.037777336    0.000000000
      4        6           0.004252183   -0.017675804    0.000000000
      5        6          -0.011723249   -0.014776409    0.000000000
      6        6           0.005771549    0.007077352   -0.000000000
      7        6          -0.007619492    0.003616467   -0.000000000
      8        1           0.050741763    0.024294090    0.000000000
      9        1          -0.001216374    0.000305875   -0.000000000
     10        1           0.000612168    0.000084508    0.000000000
     11        1          -0.000034274   -0.000662377    0.000000000
     12        1          -0.001458095    0.000819789   -0.000000000
 -------------------------------------------------------------------
 Cartesian Forces:  Max     0.095816608 RMS     0.024205704
 Force constants in Cartesian coordinates: 
                1             2             3             4             5 
      1  0.662222D-01
      2  0.105402D-01  0.423784D+00
      3  0.000000D+00  0.000000D+00  0.822517D-01
      4 -0.143812D-01 -0.286852D-01  0.000000D+00  0.533296D+00
      5 -0.104062D+00 -0.447663D-01  0.000000D+00  0.135542D+00  0.647291D+00
      6  0.000000D+00  0.000000D+00  0.170816D-01  0.000000D+00  0.000000D+00
      7 -0.925428D-01  0.602990D-02  0.000000D+00 -0.346624D+00 -0.585612D-01
      8 -0.230499D-01 -0.285039D+00  0.000000D+00 -0.113188D+00 -0.210258D+00
      9  0.000000D+00  0.000000D+00 -0.753714D-01  0.000000D+00  0.000000D+00
     10 -0.422719D-02  0.223138D-01  0.000000D+00 -0.594626D-01 -0.365318D-01
     11  0.573619D-01 -0.532353D-01  0.000000D+00  0.175180D-01  0.774784D-01
     12  0.000000D+00  0.000000D+00  0.151180D-01  0.000000D+00  0.000000D+00
     13  0.444968D-02  0.335007D-03  0.000000D+00 -0.125830D+00 -0.133778D-01
     14  0.223600D-01 -0.268347D-02  0.000000D+00  0.160108D-01 -0.354286D+00
     15  0.000000D+00  0.000000D+00  0.731764D-02  0.000000D+00  0.000000D+00
     16 -0.156235D-01  0.793890D-02  0.000000D+00 -0.220630D-01 -0.503145D-01
     17 -0.116503D-01  0.144252D-01  0.000000D+00 -0.314032D-01 -0.656808D-01
     18  0.000000D+00  0.000000D+00  0.551406D-02  0.000000D+00  0.000000D+00
     19  0.149687D-01 -0.107104D-01  0.000000D+00  0.443434D-01  0.961728D-01
     20 -0.616589D-02 -0.748809D-02  0.000000D+00  0.209319D-01 -0.552743D-01
     21  0.000000D+00  0.000000D+00 -0.209371D-02  0.000000D+00  0.000000D+00
     22  0.373411D-01 -0.718411D-02  0.000000D+00 -0.590695D-02  0.267767D-01
     23  0.550568D-01 -0.439532D-01  0.000000D+00  0.952477D-02  0.291776D-01
     24  0.000000D+00  0.000000D+00 -0.462598D-01  0.000000D+00  0.000000D+00
     25  0.247541D-02 -0.329394D-03  0.000000D+00 -0.468350D-02  0.356888D-02
     26 -0.824205D-03  0.408049D-03  0.000000D+00  0.541833D-02 -0.859688D-03
     27  0.000000D+00  0.000000D+00 -0.234381D-02  0.000000D+00  0.000000D+00
     28 -0.560788D-03 -0.627479D-04  0.000000D+00  0.479028D-02 -0.384148D-02
     29 -0.768151D-03 -0.130889D-02  0.000000D+00 -0.341995D-01 -0.217259D-01
     30  0.000000D+00  0.000000D+00  0.706210D-03  0.000000D+00  0.000000D+00
     31  0.208408D-04  0.201836D-03  0.000000D+00  0.595128D-03 -0.748096D-03
     32  0.176399D-02 -0.623231D-03  0.000000D+00 -0.509116D-03 -0.633973D-03
     33  0.000000D+00  0.000000D+00 -0.110025D-02  0.000000D+00  0.000000D+00
     34  0.185759D-02 -0.387743D-03  0.000000D+00 -0.407329D-02  0.537607D-02
     35 -0.562723D-03  0.479768D-03  0.000000D+00  0.303916D-02 -0.462387D-03
     36  0.000000D+00  0.000000D+00 -0.820182D-03  0.000000D+00  0.000000D+00
                6             7             8             9            10 
      6  0.951821D-01
      7  0.000000D+00  0.775522D+00
      8  0.000000D+00 -0.264842D-01  0.660104D+00
      9 -0.757470D-01  0.000000D+00  0.000000D+00  0.194241D+00
     10  0.000000D+00 -0.281050D+00  0.947377D-01  0.000000D+00  0.736668D+00
     11  0.000000D+00  0.378389D-01 -0.138849D+00  0.000000D+00  0.524353D-01
     12  0.147988D-01  0.000000D+00  0.000000D+00 -0.795329D-01  0.000000D+00
     13  0.000000D+00  0.300083D-01 -0.384856D-01  0.000000D+00 -0.195155D-01
     14  0.000000D+00 -0.122350D+00 -0.334303D-01  0.000000D+00  0.406137D-01
     15 -0.571314D-01  0.000000D+00  0.000000D+00  0.198929D-02  0.000000D+00
     16  0.000000D+00  0.577565D-01  0.260257D-01  0.000000D+00 -0.140548D+00
     17  0.000000D+00  0.857988D-01 -0.423938D-01  0.000000D+00 -0.399420D-01
     18 -0.650541D-02  0.000000D+00  0.000000D+00  0.216865D-02  0.000000D+00
     19  0.000000D+00 -0.905989D-01  0.944826D-02  0.000000D+00  0.391020D-01
     20  0.000000D+00  0.169009D-01  0.256589D-02  0.000000D+00 -0.347302D-01
     21  0.189599D-01  0.000000D+00  0.000000D+00 -0.953191D-02  0.000000D+00
     22  0.000000D+00 -0.393460D-01  0.876349D-01  0.000000D+00  0.387417D-02
     23  0.000000D+00  0.476557D-01  0.451490D-01  0.000000D+00  0.571994D-02
     24 -0.164580D-01  0.000000D+00  0.000000D+00  0.188659D-01  0.000000D+00
     25  0.000000D+00 -0.158425D-01 -0.175252D-01  0.000000D+00 -0.275419D+00
     26  0.000000D+00  0.135518D-01  0.113266D-01  0.000000D+00 -0.130561D+00
     27  0.517302D-02  0.000000D+00  0.000000D+00  0.223283D-02  0.000000D+00
     28  0.000000D+00  0.342074D-02  0.129271D-02  0.000000D+00  0.218186D-03
     29  0.000000D+00  0.109060D-02 -0.389486D-02  0.000000D+00  0.108683D-03
     30 -0.115351D-02  0.000000D+00  0.000000D+00  0.958453D-02  0.000000D+00
     31  0.000000D+00  0.173010D-02 -0.139125D-02  0.000000D+00  0.502547D-02
     32  0.000000D+00 -0.133783D-02 -0.537447D-02  0.000000D+00  0.282896D-01
     33 -0.225506D-02  0.000000D+00  0.000000D+00  0.111943D-01  0.000000D+00
     34  0.000000D+00 -0.243392D-02  0.984837D-03  0.000000D+00 -0.466560D-02
     35  0.000000D+00 -0.133107D-03  0.928286D-04  0.000000D+00 -0.245392D-02
     36  0.805511D-02  0.000000D+00  0.000000D+00 -0.929471D-04  0.000000D+00
               11            12            13            14            15 
     11  0.744974D+00
     12  0.000000D+00  0.124470D+00
     13  0.268020D-01  0.000000D+00  0.763035D+00
     14 -0.622884D-01  0.000000D+00  0.333999D-01  0.699624D+00
     15  0.000000D+00 -0.307404D-02  0.000000D+00  0.000000D+00  0.152742D+00
     16  0.277679D-01  0.000000D+00 -0.636152D-01  0.400308D-01  0.000000D+00
     17 -0.382604D+00  0.000000D+00 -0.214545D-01  0.784667D-01  0.000000D+00
     18  0.000000D+00 -0.608449D-01  0.000000D+00  0.000000D+00  0.724400D-02
     19 -0.809966D-01  0.000000D+00 -0.290144D+00  0.541317D-01  0.000000D+00
     20 -0.223900D-01  0.000000D+00  0.132672D+00 -0.191077D+00  0.000000D+00
     21  0.000000D+00  0.804530D-02  0.000000D+00  0.000000D+00 -0.691330D-01
     22 -0.749365D-02  0.000000D+00 -0.953126D-02 -0.758722D-02  0.000000D+00
     23 -0.185132D-01  0.000000D+00 -0.136859D-01 -0.191475D-01  0.000000D+00
     24  0.000000D+00  0.522374D-02  0.000000D+00  0.000000D+00 -0.316053D-02
     25 -0.128188D+00  0.000000D+00  0.141461D-03  0.229419D-02  0.000000D+00
     26 -0.134639D+00  0.000000D+00  0.371904D-03 -0.136831D-02  0.000000D+00
     27  0.000000D+00 -0.353550D-01  0.000000D+00  0.000000D+00 -0.247926D-03
     28  0.106054D-02  0.000000D+00 -0.291433D+00 -0.101745D+00  0.000000D+00
     29 -0.618413D-03  0.000000D+00 -0.980024D-01 -0.101655D+00  0.000000D+00
     30  0.000000D+00 -0.762378D-03  0.000000D+00  0.000000D+00 -0.428776D-01
     31 -0.197721D-02  0.000000D+00 -0.421064D-02 -0.362371D-02  0.000000D+00
     32 -0.101313D-01  0.000000D+00 -0.369555D-02 -0.635601D-03  0.000000D+00
     33  0.000000D+00  0.628188D-02  0.000000D+00  0.000000D+00  0.689447D-02
     34 -0.212940D-02  0.000000D+00  0.664536D-02  0.264655D-01  0.000000D+00
     35  0.815778D-03  0.000000D+00 -0.487863D-02 -0.115191D-01  0.000000D+00
     36  0.000000D+00  0.563180D-02  0.000000D+00  0.000000D+00 -0.562459D-03
               16            17            18            19            20 
     16  0.735625D+00
     17 -0.394618D-01  0.720778D+00
     18  0.000000D+00  0.000000D+00  0.149087D+00
     19 -0.293563D+00 -0.491453D-01  0.000000D+00  0.668659D+00
     20 -0.122703D+00 -0.176028D+00  0.000000D+00  0.488333D-02  0.772743D+00
     21  0.000000D+00  0.000000D+00 -0.629449D-01  0.000000D+00  0.000000D+00
     22  0.229590D-02  0.512567D-02  0.000000D+00 -0.396957D-02  0.103579D-02
     23  0.783913D-02  0.100091D-01  0.000000D+00 -0.112251D-01  0.502534D-02
     24  0.000000D+00  0.000000D+00 -0.347229D-03  0.000000D+00  0.000000D+00
     25  0.555319D-02  0.219932D-02  0.000000D+00  0.219189D-02  0.839740D-03
     26 -0.274124D-01 -0.960061D-02  0.000000D+00  0.154257D-02 -0.522631D-02
     27  0.000000D+00  0.000000D+00  0.230882D-02  0.000000D+00  0.000000D+00
     28 -0.341652D-02  0.375175D-02  0.000000D+00 -0.157964D-01 -0.133807D-01
     29  0.339898D-02 -0.170474D-02  0.000000D+00  0.157880D-01  0.119338D-01
     30  0.000000D+00  0.000000D+00  0.809898D-02  0.000000D+00  0.000000D+00
     31 -0.266078D+00  0.125203D+00  0.000000D+00 -0.164093D-01  0.167904D-01
     32  0.125039D+00 -0.137141D+00  0.000000D+00 -0.135315D-01  0.122609D-01
     33  0.000000D+00  0.000000D+00 -0.450452D-01  0.000000D+00  0.000000D+00
     34  0.367716D-02 -0.290215D-01  0.000000D+00 -0.587841D-01 -0.170735D-01
     35  0.185116D-02 -0.852650D-02  0.000000D+00 -0.163577D-01 -0.347046D+00
     36  0.000000D+00  0.000000D+00  0.126627D-02  0.000000D+00  0.000000D+00
               21            22            23            24            25 
     21  0.123848D+00
     22  0.000000D+00  0.171204D-01
     23  0.000000D+00 -0.984706D-01 -0.878054D-02
     24  0.267546D-02  0.000000D+00  0.000000D+00  0.415725D-01
     25  0.000000D+00 -0.120477D-02 -0.144121D-02  0.000000D+00  0.286100D+00
     26  0.000000D+00  0.230024D-04  0.854158D-03  0.000000D+00  0.138959D+00
     27  0.904471D-02  0.000000D+00  0.000000D+00 -0.310521D-03  0.000000D+00
     28  0.000000D+00  0.374075D-03  0.732417D-03  0.000000D+00 -0.349042D-04
     29  0.000000D+00 -0.320726D-03 -0.111355D-03  0.000000D+00 -0.148999D-03
     30  0.751983D-02  0.000000D+00  0.000000D+00 -0.142383D-02  0.000000D+00
     31  0.000000D+00 -0.334909D-05 -0.222468D-04  0.000000D+00  0.544711D-03
     32  0.000000D+00 -0.724026D-05 -0.568602D-03  0.000000D+00 -0.477297D-03
     33  0.527564D-02  0.000000D+00  0.000000D+00 -0.822201D-03  0.000000D+00
     34  0.000000D+00 -0.104378D-02 -0.168381D-02  0.000000D+00  0.178337D-03
     35  0.000000D+00  0.467455D-03  0.859131D-03  0.000000D+00  0.248908D-03
     36 -0.316650D-01  0.000000D+00  0.000000D+00  0.444602D-03  0.000000D+00
               26            27            28            29            30 
     26  0.138329D+00
     27  0.000000D+00  0.254262D-01
     28 -0.531930D-04  0.000000D+00  0.302728D+00
     29  0.110860D-03  0.000000D+00  0.112704D+00  0.118007D+00
     30  0.000000D+00 -0.151962D-02  0.000000D+00  0.000000D+00  0.265885D-01
     31  0.323669D-03  0.000000D+00 -0.927915D-03  0.909227D-03  0.000000D+00
     32  0.107679D-02  0.000000D+00 -0.766969D-03  0.498135D-03  0.000000D+00
     33  0.000000D+00 -0.484043D-02  0.000000D+00  0.000000D+00 -0.540217D-03
     34 -0.133953D-02  0.000000D+00  0.638342D-03 -0.559203D-03  0.000000D+00
     35 -0.412123D-03  0.000000D+00  0.309527D-03  0.469801D-03  0.000000D+00
     36  0.000000D+00  0.431708D-03  0.000000D+00  0.000000D+00 -0.422097D-02
               31            32            33            34            35 
     31  0.278758D+00
     32 -0.135472D+00  0.140717D+00
     33  0.000000D+00  0.000000D+00  0.282662D-01
     34  0.954787D-03  0.704014D-03  0.000000D+00  0.570491D-01
     35 -0.194454D-03  0.555762D-03  0.000000D+00  0.186643D-01  0.364693D+00
     36  0.000000D+00  0.000000D+00 -0.330907D-02  0.000000D+00  0.000000D+00
               36 
     36  0.248412D-01
 FormGI is forming the generalized inverse of G from B-inverse, IUseBI=4.
 Leave Link  716 at Sat Aug 28 00:51:27 2021, MaxMem= 17179869184 cpu:         6.6
 (Enter /public3/home/sc51754/softwares/g09e01/l103.exe)

 GradGradGradGradGradGradGradGradGradGradGradGradGradGradGradGradGradGrad
 Berny optimization.
 Red2BG is reusing G-inverse.
 Internal  Forces:  Max     0.062316614 RMS     0.012303646
 Search for a saddle point.
 Step number   1 out of a maximum of  100
 All quantities printed in internal units (Hartrees-Bohrs-Radians)
 Second derivative matrix not updated -- analytic derivatives used.
 ITU=  0
 LST/QST climbing along tangent vector
     Eigenvalues ---   -0.05923   0.00105   0.00568   0.01651   0.01801
     Eigenvalues ---    0.02120   0.02354   0.02782   0.03135   0.04379
     Eigenvalues ---    0.05536   0.10364   0.10720   0.11969   0.12997
     Eigenvalues ---    0.14741   0.19779   0.20060   0.23183   0.28857
     Eigenvalues ---    0.33014   0.35529   0.36252   0.36684   0.37071
     Eigenvalues ---    0.43092   0.44319   0.48729   0.51594   0.56779
     Eigenvalues --- 1000.000001000.000001000.000001000.000001000.00000
     Eigenvalues --- 1000.000001000.000001000.000001000.000001000.00000
     Eigenvalues --- 1000.000001000.000001000.000001000.000001000.00000
     Eigenvalues --- 1000.000001000.000001000.000001000.000001000.00000
     Eigenvalues --- 1000.000001000.000001000.000001000.000001000.00000
     Eigenvalues --- 1000.000001000.000001000.00000
 Eigenvectors required to have negative eigenvalues:
                          R2        R5        A4        A3        D22
   1                    0.64248  -0.53327  -0.21421   0.18171   0.17970
                          D8        D21       A1        D10       D19
   1                   -0.16478   0.16336  -0.15103  -0.14975  -0.13542
 QST in optimization variable space.
                        Tangent   TS vect  // Eig F  Eigenval
   1         R1        -0.04720  -0.04720  -0.03541  -0.05923
   2         R2         0.64248   0.64248  -0.00086   0.00105
   3         R3         0.02251   0.02251   0.00760   0.00568
   4         R4         0.01052   0.01052  -0.00100   0.01651
   5         R5        -0.53327  -0.53327   0.00090   0.01801
   6         R6         0.02365   0.02365  -0.00006   0.02120
   7         R7        -0.01071  -0.01071   0.00065   0.02354
   8         R8         0.00007   0.00007   0.00042   0.02782
   9         R9        -0.01262  -0.01262   0.00053   0.03135
  10         R10       -0.00131  -0.00131   0.00056   0.04379
  11         R11        0.01426   0.01426  -0.02255   0.05536
  12         R12        0.00039   0.00039  -0.00303   0.10364
  13         R13       -0.00091  -0.00091   0.00608   0.10720
  14         A1        -0.15103  -0.15103  -0.00069   0.11969
  15         A2         0.03251   0.03251   0.00199   0.12997
  16         A3         0.18171   0.18171  -0.02314   0.14741
  17         A4        -0.21421  -0.21421  -0.00533   0.19779
  18         A5         0.00595   0.00595   0.00609   0.20060
  19         A6         0.03682   0.03682  -0.00974   0.23183
  20         A7        -0.04276  -0.04276   0.02057   0.28857
  21         A8         0.01516   0.01516  -0.01113   0.33014
  22         A9        -0.01412  -0.01412  -0.00023   0.35529
  23         A10       -0.00104  -0.00104  -0.00049   0.36252
  24         A11       -0.01178  -0.01178  -0.00150   0.36684
  25         A12        0.00108   0.00108   0.00014   0.37071
  26         A13        0.01070   0.01070   0.00133   0.43092
  27         A14        0.00755   0.00755  -0.00144   0.44319
  28         A15       -0.00170  -0.00170  -0.00133   0.48729
  29         A16       -0.00585  -0.00585   0.00105   0.51594
  30         A17       -0.00066  -0.00066   0.00297   0.56779
  31         A18       -0.00024  -0.00024  -0.000001000.00000
  32         A19        0.00090   0.00090   0.000001000.00000
  33         D1         0.02125   0.02125  -0.000001000.00000
  34         D2         0.03278   0.03278   0.000001000.00000
  35         D3        -0.01776  -0.01776   0.000001000.00000
  36         D4        -0.02999  -0.02999   0.000001000.00000
  37         D5        -0.01973  -0.01973   0.000001000.00000
  38         D6        -0.03195  -0.03195   0.000001000.00000
  39         D7         0.12038   0.12038  -0.000001000.00000
  40         D8        -0.16478  -0.16478  -0.000001000.00000
  41         D9         0.13541   0.13541   0.000001000.00000
  42         D10       -0.14975  -0.14975   0.000001000.00000
  43         D11       -0.05175  -0.05175   0.000001000.00000
  44         D12       -0.01244  -0.01244   0.000001000.00000
  45         D13       -0.03942  -0.03942   0.000001000.00000
  46         D14       -0.00011  -0.00011   0.000001000.00000
  47         D15        0.02241   0.02241   0.000001000.00000
[...]
   R11        2.65314   0.00001   0.00000   0.00001   0.00001   2.65315
   R12        2.04519  -0.00000   0.00000   0.00000   0.00000   2.04519
   R13        2.03709  -0.00000   0.00000  -0.00000  -0.00000   2.03709
    A1        1.29548   0.00002   0.00000   0.00002   0.00002   1.29550
    A2        2.15533  -0.00000   0.00000  -0.00001  -0.00001   2.15533
    A3        1.30460  -0.00001   0.00000  -0.00001  -0.00001   1.30460
    A4        2.82325   0.00001   0.00000   0.00001   0.00001   2.82326
    A5        1.84424  -0.00001   0.00000  -0.00004  -0.00004   1.84419
    A6        2.34451   0.00001   0.00000   0.00005   0.00005   2.34456
    A7        2.09444   0.00000   0.00000  -0.00001  -0.00001   2.09443
    A8        2.03399  -0.00000   0.00000  -0.00000  -0.00000   2.03398
    A9        2.10643   0.00000   0.00000   0.00002   0.00002   2.10644
   A10        2.14277  -0.00000   0.00000  -0.00001  -0.00001   2.14276
   A11        2.08218  -0.00000   0.00000  -0.00000  -0.00000   2.08218
   A12        2.05155   0.00000   0.00000   0.00000   0.00000   2.05155
   A13        2.14945   0.00000   0.00000   0.00000   0.00000   2.14946
   A14        2.13307   0.00000   0.00000   0.00002   0.00002   2.13309
   A15        2.07611  -0.00000   0.00000  -0.00001  -0.00001   2.07610
   A16        2.07400  -0.00000   0.00000  -0.00001  -0.00001   2.07400
   A17        2.06736   0.00001   0.00000   0.00001   0.00001   2.06737
   A18        2.10068  -0.00000   0.00000  -0.00000  -0.00000   2.10068
   A19        2.11515  -0.00000   0.00000  -0.00001  -0.00001   2.11514
    D1       -0.00001  -0.00000   0.00000   0.00001   0.00001   0.00000
    D2        3.14147  -0.00000   0.00000   0.00012   0.00012   3.14159
    D3        3.14120   0.00001   0.00000   0.00039   0.00039   3.14159
    D4       -0.00030   0.00000   0.00000   0.00030   0.00030  -0.00000
    D5        0.00001   0.00000   0.00000  -0.00001  -0.00001  -0.00000
    D6       -3.14149   0.00000   0.00000  -0.00010  -0.00010  -3.14159
    D7        0.00040  -0.00001   0.00000  -0.00040  -0.00040   0.00000
    D8       -3.14147  -0.00000   0.00000  -0.00012  -0.00012  -3.14159
    D9        3.14074  -0.00000   0.00000   0.00084   0.00084   3.14159
   D10       -0.00113   0.00001   0.00000   0.00112   0.00112  -0.00000
   D11       -3.14141  -0.00000   0.00000  -0.00018  -0.00018  -3.14159
   D12        0.00014  -0.00000   0.00000  -0.00014  -0.00014   0.00000
   D13        0.00006   0.00000   0.00000  -0.00006  -0.00006   0.00000
   D14       -3.14157   0.00000   0.00000  -0.00002  -0.00002  -3.14159
   D15        0.00007  -0.00000   0.00000  -0.00007  -0.00007  -0.00000
   D16       -3.14157  -0.00000   0.00000  -0.00002  -0.00002   3.14159
   D17       -3.14149  -0.00000   0.00000  -0.00010  -0.00010   3.14159
   D18        0.00006  -0.00000   0.00000  -0.00006  -0.00006  -0.00000
   D19       -0.00025   0.00001   0.00000   0.00025   0.00025  -0.00000
   D20        3.14137   0.00001   0.00000   0.00023   0.00023   3.14159
   D21       -3.14155  -0.00000   0.00000  -0.00004  -0.00004   3.14159
   D22        0.00007  -0.00000   0.00000  -0.00007  -0.00007   0.00000
   D23        0.00003  -0.00000   0.00000  -0.00003  -0.00003   0.00000
   D24       -3.14159  -0.00000   0.00000  -0.00000  -0.00000  -3.14159
   D25       -3.14152  -0.00000   0.00000  -0.00008  -0.00008  -3.14159
   D26        0.00005  -0.00000   0.00000  -0.00005  -0.00005   0.00000
         Item               Value     Threshold  Converged?
 Maximum Force            0.000031     0.000450     YES
 RMS     Force            0.000007     0.000300     YES
 Maximum Displacement     0.000336     0.001800     YES
 RMS     Displacement     0.000064     0.001200     YES
 Predicted change in Energy=-1.072344D-08
 Optimization completed.
    -- Stationary point found.
                           ----------------------------
                           !   Optimized Parameters   !
                           ! (Angstroms and Degrees)  !
 --------------------------                            --------------------------
 ! Name  Definition              Value          Derivative Info.                !
 --------------------------------------------------------------------------------
 ! R1    R(1,3)                  1.2803         -DE/DX =    0.0                 !
 ! R2    R(1,8)                  1.3646         -DE/DX =    0.0                 !
 ! R3    R(2,3)                  1.3543         -DE/DX =    0.0                 !
 ! R4    R(2,5)                  1.3316         -DE/DX =    0.0                 !
 ! R5    R(2,8)                  1.2751         -DE/DX =    0.0                 !
 ! R6    R(3,4)                  1.4053         -DE/DX =    0.0                 !
 ! R7    R(4,6)                  1.3762         -DE/DX =    0.0                 !
 ! R8    R(4,9)                  1.0782         -DE/DX =    0.0                 !
 ! R9    R(5,7)                  1.3765         -DE/DX =    0.0                 !
 ! R10   R(5,10)                 1.0808         -DE/DX =    0.0                 !
 ! R11   R(6,7)                  1.404          -DE/DX =    0.0                 !
 ! R12   R(6,11)                 1.0823         -DE/DX =    0.0                 !
 ! R13   R(7,12)                 1.078          -DE/DX =    0.0                 !
 ! A1    A(3,1,8)               74.2256         -DE/DX =    0.0                 !
 ! A2    A(3,2,5)              123.4915         -DE/DX =    0.0                 !
 ! A3    A(3,2,8)               74.7483         -DE/DX =    0.0                 !
 ! A4    A(5,2,8)              161.7602         -DE/DX =    0.0                 !
 ! A5    A(1,3,2)              105.6669         -DE/DX =    0.0                 !
 ! A6    A(1,3,4)              134.3304         -DE/DX =    0.0                 !
 ! A7    A(2,3,4)              120.0027         -DE/DX =    0.0                 !
 ! A8    A(3,4,6)              116.5388         -DE/DX =    0.0                 !
 ! A9    A(3,4,9)              120.6893         -DE/DX =    0.0                 !
 ! A10   A(6,4,9)              122.7719         -DE/DX =    0.0                 !
 ! A11   A(2,5,7)              119.3001         -DE/DX =    0.0                 !
 ! A12   A(2,5,10)             117.5453         -DE/DX =    0.0                 !
 ! A13   A(7,5,10)             123.1546         -DE/DX =    0.0                 !
 ! A14   A(4,6,7)              122.216          -DE/DX =    0.0                 !
 ! A15   A(4,6,11)             118.9523         -DE/DX =    0.0                 !
 ! A16   A(7,6,11)             118.8316         -DE/DX =    0.0                 !
 ! A17   A(5,7,6)              118.4508         -DE/DX =    0.0                 !
 ! A18   A(5,7,12)             120.3601         -DE/DX =    0.0                 !
 ! A19   A(6,7,12)             121.1891         -DE/DX =    0.0                 !
 ! D1    D(8,1,3,2)             -0.0007         -DE/DX =    0.0                 !
 ! D2    D(8,1,3,4)            179.993          -DE/DX =    0.0                 !
 ! D3    D(5,2,3,1)            179.9776         -DE/DX =    0.0                 !
 ! D4    D(5,2,3,4)             -0.0172         -DE/DX =    0.0                 !
 ! D5    D(8,2,3,1)              0.0008         -DE/DX =    0.0                 !
 ! D6    D(8,2,3,4)           -179.994          -DE/DX =    0.0                 !
 ! D7    D(3,2,5,7)              0.0228         -DE/DX =    0.0                 !
 ! D8    D(3,2,5,10)          -179.9931         -DE/DX =    0.0                 !
 ! D9    D(8,2,5,7)            179.9514         -DE/DX =    0.0                 !
 ! D10   D(8,2,5,10)            -0.0645         -DE/DX =    0.0                 !
 ! D11   D(1,3,4,6)           -179.9896         -DE/DX =    0.0                 !
 ! D12   D(1,3,4,9)              0.0082         -DE/DX =    0.0                 !
 ! D13   D(2,3,4,6)              0.0034         -DE/DX =    0.0                 !
 ! D14   D(2,3,4,9)           -179.9988         -DE/DX =    0.0                 !
 ! D15   D(3,4,6,7)              0.0037         -DE/DX =    0.0                 !
 ! D16   D(3,4,6,11)           180.001          -DE/DX =    0.0                 !
 ! D17   D(9,4,6,7)            180.006          -DE/DX =    0.0                 !
 ! D18   D(9,4,6,11)             0.0033         -DE/DX =    0.0                 !
 ! D19   D(2,5,7,6)             -0.0146         -DE/DX =    0.0                 !
 ! D20   D(2,5,7,12)           179.9871         -DE/DX =    0.0                 !
 ! D21   D(10,5,7,6)           180.0023         -DE/DX =    0.0                 !
 ! D22   D(10,5,7,12)            0.0039         -DE/DX =    0.0                 !
 ! D23   D(4,6,7,5)              0.0017         -DE/DX =    0.0                 !
 ! D24   D(4,6,7,12)          -179.9999         -DE/DX =    0.0                 !
 ! D25   D(11,6,7,5)          -179.9956         -DE/DX =    0.0                 !
 ! D26   D(11,6,7,12)            0.0028         -DE/DX =    0.0                 !
 --------------------------------------------------------------------------------
 GradGradGradGradGradGradGradGradGradGradGradGradGradGradGradGradGradGrad

 Leave Link  103 at Sat Aug 28 00:57:11 2021, MaxMem= 17179869184 cpu:         8.4
 (Enter /public3/home/sc51754/softwares/g09e01/l9999.exe)
 1\1\GINC-K1112\Freq\RM062X\Gen\C5H5N1O1\SC51754\28-Aug-2021\0\\#P Geom
 =AllCheck Guess=TCheck SCRF=Check GenChk RM062X/ChkBas Freq\\HY_M062X_
 PC2_OPT_FREQ\\0,1\O,0.035787484,2.5653355654,0.00096341\N,-0.870505233
 3,0.671011118,0.0007128904\C,0.3198460079,1.3169310328,0.0005595941\C,
 1.5178963786,0.5824288256,-0.0000669706\C,-0.9866969612,-0.6554750822,
 -0.0000367634\C,1.3986014032,-0.7886037763,-0.0005711811\C,0.150363442
 2,-1.4313006612,-0.0005481686\H,-1.16240837,1.9122450533,0.0011000561\
 H,2.4716302695,1.0852549768,-0.0001747408\H,-1.9849649465,-1.069773987
 ,0.0000539541\H,2.2966303495,-1.3926271053,-0.0010450747\H,0.076181876
 2,-2.5067244597,-0.0009470055\\Version=EM64L-G09RevE.01\State=1-A\HF=-
 323.4630666\RMSD=2.183e-09\RMSF=1.976e-05\ZeroPoint=0.0894033\Thermal=
 0.0943548\Dipole=-0.0359421,-1.4190359,-0.0005664\DipoleDeriv=-0.53658
 17,0.0505687,0.0000542,0.163433,-1.8097266,-0.0005254,0.0001053,-0.000
 4306,-0.4042557,-0.3461409,-0.413449,-0.0000688,0.2179357,-1.0717813,-
 0.0003621,0.000291,-0.0001104,-0.2259164,0.1797624,-0.4489826,-0.00018
 26,-0.2322931,1.8825058,0.0005904,-0.0000696,0.0005326,0.2297486,-0.01
 49659,0.5275858,0.0001308,-0.1268859,-0.6759812,-0.0001729,-0.0001199,
 -0.0003073,-0.1806977,0.5030789,0.1346526,-0.000056,-0.539015,0.454626
 ,0.0003677,-0.0004774,0.000144,0.0344648,0.4090297,0.1725215,-0.000029
 6,0.2659044,0.5127365,0.0001771,0.0000165,0.0001821,-0.0660227,-0.6922
 712,-0.1816543,0.0000498,0.0919755,-0.184923,-0.0000158,0.0001507,0.00
 00424,-0.2028721,0.4298638,0.1893777,-0.0000019,0.182126,0.771086,0.00
 01224,-0.0000656,0.0001007,0.2431686,0.0135957,-0.0288332,0.0000317,-0
 .0313358,0.0508162,-0.0000317,0.0000405,-0.0000112,0.158743,-0.0052683
 ,-0.053965,0.0000007,-0.0343025,0.0546254,-0.0000285,0.0000876,-0.0000
 042,0.1266129,-0.00731,0.0629142,0.0000585,0.0644542,0.0474617,-0.0000
 444,0.0000489,-0.0000626,0.1236032,0.0672077,-0.0107364,0.0000131,-0.0
 219965,-0.0314454,-0.0000769,-0.000008,-0.0000755,0.1634236\Polar=73.2
 588234,0.0761044,87.6230276,-0.0084664,0.0195086,37.4508403\PG=C01 [X(
 C5H5N1O1)]\NImag=1\\0.08693283,-0.01625904,0.63952831,-0.00001510,0.00
 015805,0.05533467,-0.00744479,-0.05926067,-0.00000774,0.49137580,-0.16
 016107,-0.13022693,-0.00000246,0.12202208,0.74712251,-0.00004886,-0.00
 002632,0.03662691,-0.00005668,0.00025694,0.09461228,-0.10553097,0.0664
 8896,0.00003067,-0.26662930,-0.01160139,0.00006303,0.71614058,0.031000
 23,-0.44597824,-0.00010597,-0.07146227,-0.19264329,-0.00002950,-0.1229
 0984,0.75459925,0.00001742,-0.00012141,-0.07532935,0.00004225,-0.00002
 579,-0.08076248,-0.00019111,0.00021542,0.19543978,-0.00731228,0.023069
 14,0.00001238,-0.04988364,-0.02601383,-0.00000061,-0.26627972,0.079461
 97,0.00008931,0.72712888,0.06275503,-0.02956773,-0.00002924,0.01625822
 ,0.07643029,0.00002823,0.03604433,-0.14471114,-0.00004000,0.06441601,0
 .71735614,0.00002456,-0.00001323,0.01369092,0.00002730,0.00003197,0.00
 841543,0.00006685,-0.00005671,-0.07518982,-0.00015540,0.00020817,0.118
 22701,0.00727611,-0.00127766,-0.00000131,-0.14498815,-0.03196547,-0.00
 000126,0.03475040,-0.02825296,-0.00002916,-0.01417528,0.02497397,0.000
 01361,0.79636951,0.02656112,0.00200906,-0.00000497,-0.00634222,-0.3626
 5994,-0.00017568,-0.11400562,-0.02178689,0.00001066,0.03312201,-0.0618
 0842,-0.00003338,0.03219486,0.69785339,0.00002266,0.00000181,0.0070381
 3,0.00000703,-0.00016708,-0.05322587,-0.00006181,0.00000458,0.00001096
 ,0.00002074,-0.00003578,-0.00115366,-0.00012405,0.00025760,0.15251695,
 -0.02195050,0.00303257,0.00000800,-0.02322681,-0.05141334,-0.00002367,
 0.05930818,0.02591154,-0.00000619,-0.13808336,0.01088264,0.00003012,-0
 .06125893,0.04394665,0.00004026,0.69900770,-0.02143687,0.01113337,0.00
 000523,-0.02390253,-0.06358716,-0.00002442,0.08235905,-0.04656728,-0.0
 0003764,-0.05716034,-0.38375133,-0.00011067,-0.01629316,0.07522409,0.0
 0003734,-0.04087836,0.72301344,-0.00000072,0.00000102,0.00545697,-0.00
 000612,-0.00001017,-0.00631190,0.00001867,-0.00002428,0.00058372,0.000
 00075,-0.00013047,-0.05651458,0.00000577,0.00001762,0.00623869,-0.0001
 5166,0.00023829,0.14962428,0.02436903,-0.00559944,-0.00000578,0.041145
 52,0.09599672,0.00004394,-0.08943766,0.01187296,0.00002447,0.03309689,
 -0.08154966,-0.00004068,-0.30180618,0.06525411,0.00006191,-0.26804581,
 -0.03476300,0.00003545,0.65306355,-0.00633450,-0.00989046,0.00000023,0
 .02531421,-0.06418843,-0.00004153,0.01412484,0.00353426,-0.00000011,-0
 .03311570,-0.01829010,-0.00000196,0.14081353,-0.19591025,-0.00007822,-
 0.10914676,-0.16760208,-0.00001834,-0.01790988,0.77618154,-0.00001051,
 -0.00000291,-0.00223390,0.00000932,-0.00006626,0.01763069,0.00002304,-
 0.00000021,-0.00894138,-0.00001974,0.00000898,0.00783502,0.00009759,-0
 .00005479,-0.06695512,0.00000086,-0.00003511,-0.06394511,-0.00011601,0
 .00026432,0.12025350,0.01966118,-0.01085121,-0.00001889,-0.03486093,0.
 06006627,0.00001870,-0.06902724,0.09009268,0.00004903,0.00252759,-0.01
 220136,-0.00000128,-0.00769386,-0.00818834,-0.00000603,0.00408109,0.00
 655041,0.00000112,-0.00526928,0.00074641,0.00000337,0.09263534,0.08547
 644,-0.03517431,-0.00002278,0.02565744,0.00787997,0.00001761,0.0330215
 7,0.08860016,0.00001301,0.01010534,-0.02508495,-0.00001209,-0.01814732
 ,-0.02107933,-0.00001307,0.01163582,0.01652944,0.00000344,-0.01815078,
 0.00632690,0.00000769,-0.12700111,-0.03906324,0.00001346,0.00000502,-0
 .03654006,-0.00000144,0.00000122,-0.03026918,0.00003007,-0.00000219,0.
 02253902,0.00000553,-0.00000673,0.00598898,0.00000316,-0.00000763,-0.0
 0603529,0.00000283,0.00000542,-0.00062573,-0.00000751,-0.00000172,0.00
 480831,-0.00004564,0.00000535,0.04286227,0.00214673,0.00073903,-0.0000
 0107,-0.00381069,0.00314863,0.00000375,-0.01600498,-0.01647991,-0.0000
 0054,-0.28849395,-0.11768547,0.00003463,-0.00019562,0.00242944,0.00000
 119,0.00388609,0.00120338,-0.00000053,0.00265838,0.00053283,0.00000269
 ,-0.00148915,-0.00120927,0.00000002,0.30061921,-0.00226101,-0.00001389
 ,0.00000146,0.00505217,-0.00117037,-0.00000396,0.01520272,0.01306627,-
 0.00000056,-0.11859329,-0.11871865,0.00000366,0.00046016,-0.00157172,-
 0.00000075,-0.02844057,-0.00840521,0.00000467,0.00128368,-0.00485848,-
 0.00000548,0.00070389,0.00082099,0.00000012,0.12767825,0.11996011,-0.0
 0000267,0.00000061,-0.00229301,0.00000356,-0.00000546,0.00609397,0.000
 01451,0.00000838,0.00174410,0.00003347,0.00000609,-0.03224602,-0.00000
 004,0.00000001,-0.00032545,-0.00001224,-0.00000614,0.00169206,0.000002
 67,-0.00000569,0.00908592,0.00000059,0.00000096,-0.00033573,-0.0000377
 1,-0.00000181,0.02290852,-0.00067775,-0.00043460,0.00000006,0.00257541
 ,-0.00435700,-0.00000206,0.00335907,0.00142228,0.00000212,0.00013044,0
 .00077414,0.00000026,-0.31063843,-0.09876538,0.00002620,-0.00285990,0.
 00358211,0.00000367,-0.01367623,-0.01222844,0.00000121,0.00039721,0.00
 078346,-0.00000069,-0.00004640,-0.00004142,-0.00000044,0.32169244,-0.0
 0009886,-0.00206913,-0.00000022,-0.03674815,-0.01590341,0.00000218,0.0
 0278060,-0.00173490,-0.00000799,-0.00011398,-0.00073979,0.,-0.09405953
 ,-0.09740341,-0.00000018,0.00345766,-0.00192277,-0.00000496,0.01526160
 ,0.01250640,-0.00000160,-0.00029288,-0.00064704,0.00000109,-0.00017568
 ,0.00017171,0.00000103,0.10968132,0.10681044,0.00000015,-0.00000221,0.
 00026311,-0.00002366,-0.00001043,0.00029422,0.00000657,-0.00000421,0.0
 0950652,0.00000046,0.00000020,-0.00050783,0.00003589,0.00000540,-0.043
 75489,0.00000325,-0.00000371,0.00806711,0.00000889,0.00000474,0.007191
 74,-0.00000104,-0.00000082,-0.00247577,-0.00000075,0.00000075,-0.00176
 478,-0.00002891,0.00000830,0.02783380,0.00013379,0.00025763,-0.0000003
 2,0.00063029,-0.00123841,-0.00000103,0.00155271,-0.00192921,0.00000176
 ,0.00599726,-0.00292161,-0.00000154,-0.00463334,-0.00304251,0.00000157
 ,-0.25362073,0.12977181,0.00010612,-0.01683632,0.01733765,0.00001231,0
 .00001648,0.00000832,-0.00000014,0.00062136,0.00028715,-0.00000133,-0.
 00086849,0.00092374,0.00000021,0.26602853,0.00176567,-0.00008771,-0.00
 000003,-0.00043697,-0.00042864,0.00000015,-0.00118099,-0.00609905,-0.0
 0000598,0.02692534,-0.01206775,-0.00001471,-0.00361783,-0.00052623,-0.
 00000203,0.12921023,-0.14612390,-0.00007311,-0.01280414,0.01184240,0.0
 0000578,-0.00013920,-0.00052176,0.00000033,-0.00036766,0.00110998,0.00
 000239,-0.00070427,0.00051879,0.00000050,-0.13925917,0.15182483,0.0000
 0133,-0.00000085,-0.00127441,-0.00000019,0.00000225,-0.00098514,0.0000
 0107,-0.00000443,0.01083983,0.00001176,-0.00000767,0.00618970,0.000001
 96,-0.00000426,0.00632301,0.00010764,-0.00007163,-0.04456331,-0.000003
 44,-0.00000184,0.00520305,-0.00000080,-0.00000059,-0.00091724,-0.00000
 194,0.00000220,-0.00507511,-0.00000025,0.00000019,-0.00058204,-0.00011
 650,0.00008519,0.02816544,0.00239662,0.00009530,-0.00000090,-0.0048827
 2,0.00551681,0.00000476,-0.00220107,0.00127253,0.00000064,-0.00465284,
 -0.00174624,0.00000157,0.00699377,0.02683586,0.00001033,0.00276298,-0.
 02903251,-0.00001253,-0.05926189,-0.02013420,-0.00000412,-0.00097843,-
 0.00217992,0.00000035,0.00010902,-0.00133174,-0.00000036,0.00061263,-0
 .00061585,-0.00000105,0.00097846,0.00060899,-0.00000063,0.05812346,-0.
 00100713,0.00033766,0.00000070,0.00384869,-0.00062460,-0.00000371,-0.0
 0032423,-0.00027914,0.00000039,-0.00210270,0.00095345,-0.00000106,-0.0
 0482858,-0.01234036,-0.00000423,0.00180193,-0.00794060,-0.00000371,-0.
 01889219,-0.34965170,-0.00012040,0.00051443,0.00141317,-0.00000029,0.0
 0018643,-0.00039075,-0.00000037,0.00028779,0.00041310,0.00000147,-0.00
 019540,0.00055903,0.00000144,0.02071097,0.36755073,-0.00000172,0.00000
 041,-0.00073998,0.00000637,-0.00000473,0.00788106,-0.00000156,-0.00000
 088,-0.00044090,0.00000136,-0.00000178,0.00526486,-0.00000216,-0.00001
 059,-0.00067745,0.00000081,0.00000302,0.00029780,-0.00000391,-0.000119
 89,-0.02993272,0.00000086,0.00000127,0.00100040,0.00000027,-0.00000029
 ,0.00051552,-0.00000117,0.00000215,-0.00407121,-0.00000111,0.00000154,
 -0.00332378,0.00000195,0.00012978,0.02422641\\0.00003860,0.00004658,-0
 .00000682,0.00004424,0.00002058,0.00002248,-0.00001672,-0.00004807,0.0
 0000565,-0.00000033,-0.00000952,-0.00000337,-0.00000790,0.00001957,-0.
 00003489,-0.00001246,-0.00001543,-0.00000026,-0.00000930,-0.00000002,0
 .00000944,0.00000527,0.00000357,0.00000078,0.00001020,-0.00002049,-0.0
 0000062,-0.00001149,0.00002195,0.00000443,-0.00001440,-0.00002067,-0.0
 0000064,-0.00002571,0.00000196,0.00000381\\\@


 E PUR SI MUOVE    -- GALILEO GALILEI
 Job cpu time:       0 days  0 hours 52 minutes 31.5 seconds.
 File lengths (MBytes):  RWF=     81 Int=      0 D2E=      0 Chk=      7 Scr=      1
 Normal termination of Gaussian 09 at Sat Aug 28 00:57:11 2021.
