 Entering Gaussian System, Link 0=g09
 AtFile(1): pc-2.gbs
            -H     0
            S    4   1.00
                  0.754230D+02           0.240650D-02
                  0.113500D+02           0.184870D-01
                  0.259930D+01           0.897420D-01
                  0.735130D+00           0.281110D+00
            S    1   1.00
                  0.231670D+00           0.100000D+01
            S    1   1.00
                  0.741470D-01           0.100000D+01
            P    1   1.00
                  0.160000D+01           0.100000D+01
            P    1   1.00
                  0.450000D+00           0.100000D+01
            D    1   1.00
                  0.125000D+01           0.100000D+01
            ****
            -C     0
            S    7   1.00
                  0.785710D+04           0.568250D-03
                  0.117870D+04           0.439150D-02
                  0.268320D+03           0.225040D-01
                  0.759480D+02           0.866530D-01
                  0.245590D+02           0.244050D+00
                  0.862120D+01           0.441480D+00
                  0.312780D+01           0.353320D+00
            S    7   1.00
                  0.117870D+04          -0.594920D-06
                  0.268320D+03          -0.627480D-04
                  0.759480D+02          -0.757730D-03
                  0.245590D+02          -0.733080D-02
                  0.862120D+01          -0.389320D-01
                  0.312780D+01          -0.889080D-01
                  0.822020D+00           0.216890D+00
            S    1   1.00
                  0.330170D+00           0.100000D+01
            S    1   1.00
                  0.114630D+00           0.100000D+01
            P    4   1.00
                  0.337750D+02           0.602940D-02
                  0.767660D+01           0.432280D-01
                  0.223570D+01           0.163010D+00
                  0.764470D+00           0.365040D+00
            P    1   1.00
                  0.262320D+00           0.100000D+01
            P    1   1.00
                  0.846380D-01           0.100000D+01
            D    1   1.00
                  0.140000D+01           0.100000D+01
            D    1   1.00
                  0.450000D+00           0.100000D+01
            F    1   1.00
                  0.950000D+00           0.100000D+01
            ****
            -N     0
            S    7   1.00
                  0.111010D+05           0.545700D-03
                  0.166530D+04           0.421810D-02
                  0.379080D+03           0.216450D-01
                  0.107300D+03           0.837760D-01
                  0.347470D+02           0.238810D+00
                  0.122490D+02           0.439940D+00
                  0.447430D+01           0.363640D+00
            S    7   1.00
                  0.166530D+04          -0.150060D-05
                  0.379080D+03          -0.587530D-04
                  0.107300D+03          -0.774530D-03
                  0.347470D+02          -0.721610D-02
                  0.122490D+02          -0.393380D-01
                  0.447430D+01          -0.906110D-01
                  0.124040D+01           0.198820D+00
            S    1   1.00
                  0.487430D+00           0.100000D+01
            S    1   1.00
                  0.164840D+00           0.100000D+01
            P    4   1.00
                  0.479340D+02           0.617060D-02
                  0.109990D+02           0.442600D-01
                  0.324720D+01           0.168250D+00
                  0.111140D+01           0.368480D+00
            P    1   1.00
                  0.379880D+00           0.100000D+01
            P    1   1.00
                  0.120680D+00           0.100000D+01
            D    1   1.00
                  0.180000D+01           0.100000D+01
            D    1   1.00
                  0.550000D+00           0.100000D+01
            F    1   1.00
                  0.102000D+01           0.100000D+01
            ****
            -O     0
            S    7   1.00
                  0.147820D+05           0.535190D-03
                  0.221730D+04           0.413750D-02
                  0.504740D+03           0.212450D-01
                  0.142870D+03           0.824530D-01
                  0.463000D+02           0.236710D+00
                  0.163370D+02           0.440390D+00
                  0.598280D+01           0.364650D+00
            S    7   1.00
                  0.221730D+04          -0.192750D-05
                  0.504740D+03          -0.579640D-04
                  0.142870D+03          -0.794940D-03
                  0.463000D+02          -0.731250D-02
                  0.163370D+02          -0.405740D-01
                  0.598280D+01          -0.915940D-01
                  0.167180D+01           0.209400D+00
            S    1   1.00
                  0.646620D+00           0.100000D+01
            S    1   1.00
                  0.216690D+00           0.100000D+01
            P    4   1.00
                  0.604240D+02           0.689490D-02
                  0.139350D+02           0.490050D-01
                  0.415310D+01           0.182550D+00
                  0.141580D+01           0.376330D+00
            P    1   1.00
                  0.475490D+00           0.100000D+01
            P    1   1.00
                  0.145290D+00           0.100000D+01
            D    1   1.00
                  0.220000D+01           0.100000D+01
            D    1   1.00
                  0.650000D+00           0.100000D+01
            F    1   1.00
                  0.110000D+01           0.100000D+01
            ****
 Initial command:
 /public3/home/sc51754/softwares/g09e01/l1.exe "./Gau-36906.inp" -scrdir="./"
 Entering Link 1 = /public3/home/sc51754/softwares/g09e01/l1.exe PID=     36907.
  
 Copyright (c) 1988,1990,1992,1993,1995,1998,2003,2009,2015,
            Gaussian, Inc.  All Rights Reserved.
  
 This is part of the Gaussian(R) 09 program.  It is based on
 the Gaussian(R) 03 system (copyright 2003, Gaussian, Inc.),
 the Gaussian(R) 98 system (copyright 1998, Gaussian, Inc.),
 the Gaussian(R) 94 system (copyright 1995, Gaussian, Inc.),
 the Gaussian 92(TM) system (copyright 1992, Gaussian, Inc.),
 the Gaussian 90(TM) system (copyright 1990, Gaussian, Inc.),
 the Gaussian 88(TM) system (copyright 1988, Gaussian, Inc.),
 the Gaussian 86(TM) system (copyright 1986, Carnegie Mellon
 University), and the Gaussian 82(TM) system (copyright 1983,
 Carnegie Mellon University). Gaussian is a federally registered
 trademark of Gaussian, Inc.
  
 This software contains proprietary and confidential information,
 including trade secrets, belonging to Gaussian, Inc.
  
 This software is provided under written license and may be
 used, copied, transmitted, or stored only in accord with that
 written license.
  
 The following legend is applicable only to US Government
 contracts under FAR:
  
                    RESTRICTED RIGHTS LEGEND
  
 Use, reproduction and disclosure by the US Government is
 subject to restrictions as set forth in subparagraphs (a)
 and (c) of the Commercial Computer Software - Restricted
 Rights clause in FAR 52.227-19.
  
 Gaussian, Inc.
 340 Quinnipiac St., Bldg. 40, Wallingford CT 06492
  
  
 ---------------------------------------------------------------
 Warning -- This program may not be used in any manner that
 competes with the business of Gaussian, Inc. or will provide
 assistance to any competitor of Gaussian, Inc.  The licensee
 of this program is prohibited from giving any competitor of
 Gaussian, Inc. access to this program.  By using this program,
 the user acknowledges that Gaussian, Inc. is engaged in the
 business of creating and licensing software in the field of
 computational chemistry and represents and warrants to the
 licensee that it is not a competitor of Gaussian, Inc. and that
 it will not use this program in any manner prohibited above.
 ---------------------------------------------------------------
  

 Cite this work as:
 Gaussian 09, Revision E.01,
 M. J. Frisch, G. W. Trucks, H. B. Schlegel, G. E. Scuseria, 
 M. A. Robb, J. R. Cheeseman, G. Scalmani, V. Barone, B. Mennucci, 
 G. A. Petersson, H. Nakatsuji, M. Caricato, X. Li, H. P. Hratchian, 
 A. F. Izmaylov, J. Bloino, G. Zheng, J. L. Sonnenberg, M. Hada, 
 M. Ehara, K. Toyota, R. Fukuda, J. Hasegawa, M. Ishida, T. Nakajima, 
 Y. Honda, O. Kitao, H. Nakai, T. Vreven, J. A. Montgomery, Jr., 
 J. E. Peralta, F. Ogliaro, M. Bearpark, J. J. Heyd, E. Brothers, 
 K. N. Kudin, V. N. Staroverov, T. Keith, R. Kobayashi, J. Normand, 
 K. Raghavachari, A. Rendell, J. C. Burant, S. S. Iyengar, J. Tomasi, 
 M. Cossi, N. Rega, J. M. Millam, M. Klene, J. E. Knox, J. B. Cross, 
 V. Bakken, C. Adamo, J. Jaramillo, R. Gomperts, R. E. Stratmann, 
 O. Yazyev, A. J. Austin, R. Cammi, C. Pomelli, J. W. Ochterski, 
 R. L. Martin, K. Morokuma, V. G. Zakrzewski, G. A. Voth, 
 P. Salvador, J. J. Dannenberg, S. Dapprich, A. D. Daniels, 
 O. Farkas, J. B. Foresman, J. V. Ortiz, J. Cioslowski, 
 and D. J. Fox, Gaussian, Inc., Wallingford CT, 2013.
 
 ******************************************
 Gaussian 09:  EM64L-G09RevE.01 30-Nov-2015
                28-Aug-2021 
 ******************************************
 %nprocshared=64
 Will use up to   64 processors via shared memory.
 %mem=128GB
 %chk=TST_H2O_M06.chk
 ----------------------------------------------
 #p opt=(calcfc,qst3,MaxCycle=200) freq M06/gen
 ----------------------------------------------
 1/5=1,6=200,10=4,14=-1,18=20,26=3,27=203,38=1/1,3;
 2/9=110,12=2,17=6,18=5,40=1/2;
 3/5=7,11=2,16=1,25=1,30=1,71=2,74=-54,140=1/1,2,3;
 4//1;
 5/5=2,38=5/2;
 8/6=4,10=90,11=11/1;
 11/6=1,8=1,9=11,15=111,16=1/1,2,10;
 10/6=1,13=1/2;
 6/7=2,8=2,9=2,10=2,28=1/1;
 7/10=1,18=20,25=1/1,2,3,16;
 1/5=1,6=200,10=4,14=-1,18=20,26=3,27=203/3(2);
 2/9=110/2;
 99//99;
 2/9=110/2;
 3/5=7,6=1,11=2,16=1,25=1,30=1,71=1,74=-54,82=7/1,2,3;
 4/5=5,16=3,69=1/1;
 5/5=2,38=5/2;
 7//1,2,3,16;
 1/5=1,6=200,14=-1,18=20,26=3,27=203/3(-5);
 2/9=110/2;
 6/7=2,8=2,9=2,10=2,19=2,28=1/1;
 99/9=1/99;
 Leave Link    1 at Sat Aug 28 01:05:17 2021, MaxMem= 17179869184 cpu:         7.0
 (Enter /public3/home/sc51754/softwares/g09e01/l101.exe)
 -----------------------
 HY_H2O_M06_PC2_OPT_FREQ
 -----------------------
 Symbolic Z-matrix:
 Charge =  0 Multiplicity = 1
 O                     1.20179   1.44193  -0.00336 
 N                     0.30288  -0.66519  -0.00619 
 C                     0.13513   0.64977  -0.00057 
 C                    -1.12788   1.24834   0.00863 
 C                    -0.78331  -1.4394   -0.00624 
 C                    -2.23115   0.43321   0.00997 
 C                    -2.0669   -0.94835   0.00193 
 H                     2.01493   0.8986   -0.01847 
 H                    -1.20081   2.32597   0.01275 
 H                    -0.60372  -2.50909  -0.01369 
 H                    -3.22293   0.86644   0.01632 
 H                    -2.91284  -1.61959   0.00126 
 O                     3.10028  -0.57665  -0.08194 
 H                     3.60033  -0.87314   0.67619 
 H                     2.23306  -1.01653  -0.03103 
 
 Add virtual bond connecting atoms O13        and H8         Dist= 3.46D+00.
 Add virtual bond connecting atoms H15        and N2         Dist= 3.71D+00.
 Add virtual bond connecting atoms H15        and H8         Dist= 3.64D+00.
 Add atom     13 valence  3 ND=      2 dihedral       8     13     14     15
 -----------------------
 PY_H2O_M06_PC2_OPT_FREQ
 -----------------------
 Symbolic Z-matrix:
 Charge =  0 Multiplicity = 1
 O                     1.24612   1.3971    0.00739 
 N                     0.25514  -0.65007   0.01389 
 C                     0.20996   0.7413    0.00715 
 C                    -1.12192   1.27947  -0.00031 
 C                    -0.83041  -1.45505   0.0078 
 C                    -2.20921   0.47084  -0.00526 
 C                    -2.07995  -0.93722  -0.00206 
 H                     2.7148    0.27882  -0.04667 
 H                    -1.20535   2.35634  -0.00389 
 H                    -0.63265  -2.51786   0.0103 
 H                    -3.19925   0.90984  -0.01255 
 H                    -2.94131  -1.58583  -0.00764 
 O                     3.08354  -0.62312  -0.084 
 H                     3.83335  -0.63578   0.50638 
 H                     1.19628  -1.04288   0.0257 
 
 Add virtual bond connecting atoms H8         and O1         Dist= 3.49D+00.
 Add virtual bond connecting atoms O13        and H15        Dist= 3.66D+00.
 -----------
 TST_H2O_M06
 -----------
 Symbolic Z-matrix:
 Charge =  0 Multiplicity = 1
 O                     1.38897   1.41935  -0.00712 
 N                     0.49006  -0.68776  -0.00995 
 C                     0.3223    0.6272   -0.00432 
 C                    -0.9407    1.22576   0.00488 
 C                    -0.59613  -1.46197  -0.01 
 C                    -2.04397   0.41063   0.00622 
 C                    -1.87973  -0.97092  -0.00182 
 H                     2.05357   0.61423  -0.02791 
 H                    -1.01363   2.3034    0.009 
 H                    -0.41654  -2.53166  -0.01745 
 H                    -3.03575   0.84386   0.01256 
 H                    -2.72567  -1.64217  -0.00249 
 O                     2.68728  -0.24713  -0.06498 
 H                     3.18733  -0.54362   0.69315 
 H                     1.82006  -0.68701  -0.01407 
 
 NAtoms=     15 NQM=       15 NQMF=       0 NMMI=      0 NMMIF=      0
                NMic=       0 NMicF=      0.
                    Isotopes and Nuclear Properties:
 (Nuclear quadrupole moments (NQMom) in fm**2, nuclear magnetic moments (NMagM)
  in nuclear magnetons)

  Atom         1           2           3           4           5           6           7           8           9          10
 IAtWgt=          16          14          12          12          12          12          12           1           1           1
 AtmWgt=  15.9949146  14.0030740  12.0000000  12.0000000  12.0000000  12.0000000  12.0000000   1.0078250   1.0078250   1.0078250
 NucSpn=           0           2           0           0           0           0           0           1           1           1
 AtZEff=   0.0000000   0.0000000   0.0000000   0.0000000   0.0000000   0.0000000   0.0000000   0.0000000   0.0000000   0.0000000
 NQMom=    0.0000000   2.0440000   0.0000000   0.0000000   0.0000000   0.0000000   0.0000000   0.0000000   0.0000000   0.0000000
 NMagM=    0.0000000   0.4037610   0.0000000   0.0000000   0.0000000   0.0000000   0.0000000   2.7928460   2.7928460   2.7928460
 AtZNuc=   8.0000000   7.0000000   6.0000000   6.0000000   6.0000000   6.0000000   6.0000000   1.0000000   1.0000000   1.0000000

  Atom        11          12          13          14          15
 IAtWgt=           1           1          16           1           1
 AtmWgt=   1.0078250   1.0078250  15.9949146   1.0078250   1.0078250
 NucSpn=           1           1           0           1           1
 AtZEff=   0.0000000   0.0000000   0.0000000   0.0000000   0.0000000
 NQMom=    0.0000000   0.0000000   0.0000000   0.0000000   0.0000000
 NMagM=    2.7928460   2.7928460   0.0000000   2.7928460   2.7928460
 AtZNuc=   1.0000000   1.0000000   8.0000000   1.0000000   1.0000000
 Leave Link  101 at Sat Aug 28 01:05:17 2021, MaxMem= 17179869184 cpu:        12.4
 (Enter /public3/home/sc51754/softwares/g09e01/l103.exe)

 GradGradGradGradGradGradGradGradGradGradGradGradGradGradGradGradGradGrad
 Berny optimization.
 Initialization pass.
                           ----------------------------
                           !    Initial Parameters    !
                           ! (Angstroms and Degrees)  !
 --------------------------                            --------------------------
 ! Name  Definition        TS        Reactant  Product Derivative Info.         !
 --------------------------------------------------------------------------------
 ! R1    R(1,3)             1.3286    1.3286    1.2263 calculate D2E/DX2 analyti!
 ! R2    R(1,8)             1.0442    0.9781    1.8467 calculate D2E/DX2 analyti!
 ! R3    R(2,3)             1.3256    1.3256    1.3921 calculate D2E/DX2 analyti!
 ! R4    R(2,5)             1.3339    1.3339    1.3515 calculate D2E/DX2 analyti!
 ! R5    R(2,15)            1.33      1.962     1.0199 calculate D2E/DX2 analyti!
 ! R6    R(3,4)             1.3977    1.3977    1.4365 calculate D2E/DX2 analyti!
 ! R7    R(4,6)             1.3717    1.3717    1.355  calculate D2E/DX2 analyti!
 ! R8    R(4,9)             1.0801    1.0801    1.0801 calculate D2E/DX2 analyti!
 ! R9    R(5,7)             1.3743    1.3743    1.3526 calculate D2E/DX2 analyti!
 ! R10   R(5,10)            1.0847    1.0847    1.0811 calculate D2E/DX2 analyti!
 ! R11   R(6,7)             1.3913    1.3913    1.414  calculate D2E/DX2 analyti!
 ! R12   R(6,11)            1.0823    1.0823    1.083  calculate D2E/DX2 analyti!
 ! R13   R(7,12)            1.0799    1.0799    1.0783 calculate D2E/DX2 analyti!
 ! R14   R(8,13)            1.07      1.8326    0.9751 calculate D2E/DX2 analyti!
 ! R15   R(8,15)            1.3221    1.9275    2.0145 calculate D2E/DX2 analyti!
 ! R16   R(13,14)           0.9554    0.9554    0.9544 calculate D2E/DX2 analyti!
 ! R17   R(13,15)           0.9737    0.9737    1.9365 calculate D2E/DX2 analyti!
 ! A1    A(3,1,8)          92.941   109.6498  110.3742 calculate D2E/DX2 analyti!
 ! A2    A(3,2,5)         118.2095  118.2095  124.6967 calculate D2E/DX2 analyti!
 ! A3    A(3,2,15)         97.2386  107.5883  114.5155 calculate D2E/DX2 analyti!
 ! A4    A(5,2,15)        144.5518  134.199   120.7877 calculate D2E/DX2 analyti!
 ! A5    A(1,3,2)         119.328   119.328   120.47   calculate D2E/DX2 analyti!
 ! A6    A(1,3,4)         118.0436  118.0436  125.6677 calculate D2E/DX2 analyti!
 ! A7    A(2,3,4)         122.6284  122.6284  113.8622 calculate D2E/DX2 analyti!
 ! A8    A(3,4,6)         118.1842  118.1842  121.3602 calculate D2E/DX2 analyti!
 ! A9    A(3,4,9)         119.2297  119.2297  116.4325 calculate D2E/DX2 analyti!
 ! A10   A(6,4,9)         122.586   122.586   122.2071 calculate D2E/DX2 analyti!
 ! A11   A(2,5,7)         123.5845  123.5845  120.9325 calculate D2E/DX2 analyti!
 ! A12   A(2,5,10)        115.949   115.949   116.017  calculate D2E/DX2 analyti!
 ! A13   A(7,5,10)        120.4665  120.4665  123.0505 calculate D2E/DX2 analyti!
 ! A14   A(4,6,7)         119.6774  119.6774  121.393  calculate D2E/DX2 analyti!
 ! A15   A(4,6,11)        119.9448  119.9448  119.4486 calculate D2E/DX2 analyti!
 ! A16   A(7,6,11)        120.3777  120.3777  119.1584 calculate D2E/DX2 analyti!
 ! A17   A(5,7,6)         117.7158  117.7158  117.7547 calculate D2E/DX2 analyti!
 ! A18   A(5,7,12)        120.6329  120.6329  120.5114 calculate D2E/DX2 analyti!
 ! A19   A(6,7,12)        121.6514  121.6514  121.7339 calculate D2E/DX2 analyti!
 ! A20   A(1,8,13)        176.6956  160.069   149.5359 calculate D2E/DX2 analyti!
 ! A21   A(1,8,15)        130.2598  130.249    78.2733 calculate D2E/DX2 analyti!
 ! A22   A(8,13,14)       122.1635  122.1635  106.5984 calculate D2E/DX2 analyti!
 ! A23   A(8,13,15)        80.4667   80.4667   80.2001 calculate D2E/DX2 analyti!
 ! A24   A(14,13,15)      106.5273  106.5273  136.6962 calculate D2E/DX2 analyti!
 ! A25   A(2,15,8)        100.2074   73.1826  116.2629 calculate D2E/DX2 analyti!
 ! A26   A(2,15,13)       153.0026  142.7417  144.6055 calculate D2E/DX2 analyti!
 ! D1    D(8,1,3,2)         0.7902    0.5503    2.1219 calculate D2E/DX2 analyti!
 ! D2    D(8,1,3,4)      -179.2266 -179.4665 -177.8481 calculate D2E/DX2 analyti!
 ! D3    D(3,1,8,13)       14.8914    3.1953    0.8406 calculate D2E/DX2 analyti!
 ! D4    D(3,1,8,15)       -1.6914   -0.4479   -2.3902 calculate D2E/DX2 analyti!
 ! D5    D(5,2,3,1)      -179.8535 -179.8535 -179.6701 calculate D2E/DX2 analyti!
 ! D6    D(5,2,3,4)         0.1641    0.1641    0.3032 calculate D2E/DX2 analyti!
 ! D7    D(15,2,3,1)        0.1265   -0.4093    0.4268 calculate D2E/DX2 analyti!
 ! D8    D(15,2,3,4)     -179.8559  179.6083 -179.5999 calculate D2E/DX2 analyti!
 ! D9    D(3,2,5,7)        -0.1355   -0.1355   -0.1836 calculate D2E/DX2 analyti!
 ! D10   D(3,2,5,10)      179.8378  179.8378  179.7573 calculate D2E/DX2 analyti!
 ! D11   D(15,2,5,7)      179.8987 -179.3964  179.7138 calculate D2E/DX2 analyti!
 ! D12   D(15,2,5,10)      -0.128     0.5769   -0.3454 calculate D2E/DX2 analyti!
 ! D13   D(3,2,15,8)       -0.8002    0.146    -2.6217 calculate D2E/DX2 analyti!
 ! D14   D(3,2,15,13)      -6.4847   -4.0225   -6.5503 calculate D2E/DX2 analyti!
 ! D15   D(5,2,15,8)      179.1694  179.4627  177.4711 calculate D2E/DX2 analyti!
 ! D16   D(5,2,15,13)     173.4848  175.2942  173.5424 calculate D2E/DX2 analyti!
 ! D17   D(1,3,4,6)       179.9259  179.9259  179.7363 calculate D2E/DX2 analyti!
 ! D18   D(1,3,4,9)         0.0251    0.0251   -0.1357 calculate D2E/DX2 analyti!
 ! D19   D(2,3,4,6)        -0.0915   -0.0915   -0.2354 calculate D2E/DX2 analyti!
 ! D20   D(2,3,4,9)      -179.9923 -179.9923  179.8926 calculate D2E/DX2 analyti!
 ! D21   D(3,4,6,7)        -0.015    -0.015     0.0586 calculate D2E/DX2 analyti!
 ! D22   D(3,4,6,11)     -179.9574 -179.9574 -179.8962 calculate D2E/DX2 analyti!
 ! D23   D(9,4,6,7)       179.8822  179.8822  179.9232 calculate D2E/DX2 analyti!
 ! D24   D(9,4,6,11)       -0.0601   -0.0601   -0.0316 calculate D2E/DX2 analyti!
 ! D25   D(2,5,7,6)         0.0336    0.0336   -0.0229 calculate D2E/DX2 analyti!
 ! D26   D(2,5,7,12)      179.9857  179.9857  179.9524 calculate D2E/DX2 analyti!
 ! D27   D(10,5,7,6)     -179.9386 -179.9386 -179.9595 calculate D2E/DX2 analyti!
 ! D28   D(10,5,7,12)       0.0136    0.0136    0.0158 calculate D2E/DX2 analyti!
 ! D29   D(4,6,7,5)         0.0422    0.0422    0.0796 calculate D2E/DX2 analyti!
 ! D30   D(4,6,7,12)     -179.9094 -179.9094 -179.8953 calculate D2E/DX2 analyti!
 ! D31   D(11,6,7,5)      179.9843  179.9843 -179.9654 calculate D2E/DX2 analyti!
 ! D32   D(11,6,7,12)       0.0327    0.0327    0.0596 calculate D2E/DX2 analyti!
 ! D33   D(1,8,13,14)    -121.0489 -109.1865 -139.3221 calculate D2E/DX2 analyti!
 ! D34   D(1,8,13,15)     -17.4489   -5.5865   -3.3396 calculate D2E/DX2 analyti!
 ! D35   D(1,8,15,2)        1.9318    0.1983    3.0436 calculate D2E/DX2 analyti!
 ! D36   D(8,13,14,15)     88.9984   88.9984   93.286  calculate D2E/DX2 analyti!
 ! D37   D(8,13,15,2)       7.0156    4.2559    7.4008 calculate D2E/DX2 analyti!
 ! D38   D(14,13,15,2)    127.8942  125.1346  111.2516 calculate D2E/DX2 analyti!
 --------------------------------------------------------------------------------
 Trust Radius=3.00D-01 FncErr=1.00D-07 GrdErr=1.00D-06
 Number of steps in this run=    100 maximum allowed number of steps=    100.
 Search for a saddle point of order  1.
 GradGradGradGradGradGradGradGradGradGradGradGradGradGradGradGradGradGrad

 Leave Link  103 at Sat Aug 28 01:05:17 2021, MaxMem= 17179869184 cpu:         1.9
 (Enter /public3/home/sc51754/softwares/g09e01/l202.exe)
                          Input orientation:                          
 ---------------------------------------------------------------------
 Center     Atomic      Atomic             Coordinates (Angstroms)
 Number     Number       Type             X           Y           Z
 ---------------------------------------------------------------------
      1          8           0        1.388969    1.419352   -0.007115
      2          7           0        0.490063   -0.687763   -0.009948
      3          6           0        0.322305    0.627198   -0.004324
      4          6           0       -0.940704    1.225765    0.004877
      5          6           0       -0.596132   -1.461970   -0.009995
      6          6           0       -2.043973    0.410633    0.006216
      7          6           0       -1.879725   -0.970922   -0.001824
      8          1           0        2.053571    0.614226   -0.027915
      9          1           0       -1.013634    2.303396    0.008998
     10          1           0       -0.416543   -2.531659   -0.017450
     11          1           0       -3.035754    0.843864    0.012559
     12          1           0       -2.725665   -1.642165   -0.002492
     13          8           0        2.687281   -0.247132   -0.064975
     14          1           0        3.187325   -0.543625    0.693154
     15          1           0        1.820056   -0.687013   -0.014070
 ---------------------------------------------------------------------
                    Distance matrix (angstroms):
                    1          2          3          4          5
     1  O    0.000000
     2  N    2.290846   0.000000
     3  C    1.328641   1.325631   0.000000
     4  C    2.337733   2.389331   1.397698   0.000000
     5  C    3.498950   1.333873   2.282144   2.709773   0.000000
     6  C    3.578098   2.761897   2.376191   1.371730   2.367097
     7  C    4.049419   2.386659   2.720833   2.388983   1.374338
     8  H    1.044201   2.034713   1.731476   3.056262   3.366280
     9  H    2.560136   3.347909   2.143490   1.080104   3.788489
    10  H    4.344015   2.054737   3.244140   3.793874   1.084685
    11  H    4.462034   3.844187   3.365084   2.129587   3.356953
    12  H    5.128657   3.354377   3.800017   3.378041   2.137156
    13  O    2.113322   2.241641   2.522151   3.916195   3.501380
    14  H    2.752769   2.791120   3.172640   4.543687   3.956302
    15  H    2.150036   1.330000   1.992612   3.358701   2.537428
                    6          7          8          9         10
     6  C    0.000000
     7  C    1.391307   0.000000
     8  H    4.102741   4.240778   0.000000
     9  H    2.155031   3.386944   3.501772   0.000000
    10  H    3.362465   2.139403   3.999771   4.871855   0.000000
    11  H    1.082293   2.151757   5.094664   2.493836   4.272625
    12  H    2.163044   1.079899   5.285173   4.301004   2.474564
    13  O    4.777289   4.624436   1.070000   4.495268   3.854225
    14  H    5.361807   5.132307   1.773685   5.120709   4.176734
    15  H    4.016959   3.710679   1.322099   4.119815   2.899157
                   11         12         13         14         15
    11  H    0.000000
    12  H    2.505339   0.000000
    13  O    5.826613   5.590171   0.000000
    14  H    6.412102   6.054269   0.955359   0.000000
    15  H    5.091482   4.645001   0.973738   1.546011   0.000000
 Stoichiometry    C5H7NO2
 Framework group  C1[X(C5H7NO2)]
 Deg. of freedom    39
 Full point group                 C1      NOp   1
 Largest Abelian subgroup         C1      NOp   1
 Largest concise Abelian subgroup C1      NOp   1
                         Standard orientation:                         
 ---------------------------------------------------------------------
 Center     Atomic      Atomic             Coordinates (Angstroms)
 Number     Number       Type             X           Y           Z
 ---------------------------------------------------------------------
      1          8           0        1.465463    1.216153   -0.008672
      2          7           0        0.313514   -0.763992   -0.012174
      3          6           0        0.309250    0.561605   -0.003682
      4          6           0       -0.870249    1.311359    0.010816
      5          6           0       -0.859877   -1.398315   -0.009925
      6          6           0       -2.065627    0.638526    0.014437
      7          6           0       -2.073068   -0.752718    0.003423
      8          1           0        2.025614    0.335250   -0.033117
      9          1           0       -0.809688    2.389745    0.017071
     10          1           0       -0.813625   -2.481968   -0.019859
     11          1           0       -2.996372    1.190760    0.024875
     12          1           0       -2.995341   -1.314495    0.004424
     13          8           0        2.548121   -0.597611   -0.073818
     14          1           0        3.010139   -0.955147    0.682104
     15          1           0        1.633424   -0.927279   -0.020768
 ---------------------------------------------------------------------
 Rotational constants (GHZ):      4.4091254      1.6990577      1.2297270
 Leave Link  202 at Sat Aug 28 01:05:18 2021, MaxMem= 17179869184 cpu:         2.9
 (Enter /public3/home/sc51754/softwares/g09e01/l301.exe)
 General basis read from cards:  (5D, 7F)
 Centers:       8      9     10     11     12     14     15
 S 4 1.00
     Exponent=  7.5423000000D+01 Coefficients=  2.4065000000D-03
     Exponent=  1.1350000000D+01 Coefficients=  1.8487000000D-02
     Exponent=  2.5993000000D+00 Coefficients=  8.9742000000D-02
     Exponent=  7.3513000000D-01 Coefficients=  2.8111000000D-01
 S 1 1.00
     Exponent=  2.3167000000D-01 Coefficients=  1.0000000000D+00
 S 1 1.00
     Exponent=  7.4147000000D-02 Coefficients=  1.0000000000D+00
 P 1 1.00
     Exponent=  1.6000000000D+00 Coefficients=  1.0000000000D+00
 P 1 1.00
     Exponent=  4.5000000000D-01 Coefficients=  1.0000000000D+00
 D 1 1.00
     Exponent=  1.2500000000D+00 Coefficients=  1.0000000000D+00
 ****
 Centers:       3      4      5      6      7
 S 7 1.00
     Exponent=  7.8571000000D+03 Coefficients=  5.6825000000D-04
     Exponent=  1.1787000000D+03 Coefficients=  4.3915000000D-03
     Exponent=  2.6832000000D+02 Coefficients=  2.2504000000D-02
     Exponent=  7.5948000000D+01 Coefficients=  8.6653000000D-02
     Exponent=  2.4559000000D+01 Coefficients=  2.4405000000D-01
     Exponent=  8.6212000000D+00 Coefficients=  4.4148000000D-01
     Exponent=  3.1278000000D+00 Coefficients=  3.5332000000D-01
 S 7 1.00
     Exponent=  1.1787000000D+03 Coefficients= -5.9492000000D-07
     Exponent=  2.6832000000D+02 Coefficients= -6.2748000000D-05
     Exponent=  7.5948000000D+01 Coefficients= -7.5773000000D-04
     Exponent=  2.4559000000D+01 Coefficients= -7.3308000000D-03
     Exponent=  8.6212000000D+00 Coefficients= -3.8932000000D-02
     Exponent=  3.1278000000D+00 Coefficients= -8.8908000000D-02
     Exponent=  8.2202000000D-01 Coefficients=  2.1689000000D-01
 S 1 1.00
     Exponent=  3.3017000000D-01 Coefficients=  1.0000000000D+00
 S 1 1.00
     Exponent=  1.1463000000D-01 Coefficients=  1.0000000000D+00
 P 4 1.00
     Exponent=  3.3775000000D+01 Coefficients=  6.0294000000D-03
     Exponent=  7.6766000000D+00 Coefficients=  4.3228000000D-02
     Exponent=  2.2357000000D+00 Coefficients=  1.6301000000D-01
     Exponent=  7.6447000000D-01 Coefficients=  3.6504000000D-01
 P 1 1.00
     Exponent=  2.6232000000D-01 Coefficients=  1.0000000000D+00
 P 1 1.00
     Exponent=  8.4638000000D-02 Coefficients=  1.0000000000D+00
 D 1 1.00
     Exponent=  1.4000000000D+00 Coefficients=  1.0000000000D+00
 D 1 1.00
     Exponent=  4.5000000000D-01 Coefficients=  1.0000000000D+00
 F 1 1.00
     Exponent=  9.5000000000D-01 Coefficients=  1.0000000000D+00
 ****
 Centers:       2
 S 7 1.00
     Exponent=  1.1101000000D+04 Coefficients=  5.4570000000D-04
     Exponent=  1.6653000000D+03 Coefficients=  4.2181000000D-03
     Exponent=  3.7908000000D+02 Coefficients=  2.1645000000D-02
     Exponent=  1.0730000000D+02 Coefficients=  8.3776000000D-02
     Exponent=  3.4747000000D+01 Coefficients=  2.3881000000D-01
     Exponent=  1.2249000000D+01 Coefficients=  4.3994000000D-01
     Exponent=  4.4743000000D+00 Coefficients=  3.6364000000D-01
 S 7 1.00
     Exponent=  1.6653000000D+03 Coefficients= -1.5006000000D-06
     Exponent=  3.7908000000D+02 Coefficients= -5.8753000000D-05
     Exponent=  1.0730000000D+02 Coefficients= -7.7453000000D-04
     Exponent=  3.4747000000D+01 Coefficients= -7.2161000000D-03
     Exponent=  1.2249000000D+01 Coefficients= -3.9338000000D-02
     Exponent=  4.4743000000D+00 Coefficients= -9.0611000000D-02
     Exponent=  1.2404000000D+00 Coefficients=  1.9882000000D-01
 S 1 1.00
     Exponent=  4.8743000000D-01 Coefficients=  1.0000000000D+00
 S 1 1.00
     Exponent=  1.6484000000D-01 Coefficients=  1.0000000000D+00
 P 4 1.00
     Exponent=  4.7934000000D+01 Coefficients=  6.1706000000D-03
     Exponent=  1.0999000000D+01 Coefficients=  4.4260000000D-02
     Exponent=  3.2472000000D+00 Coefficients=  1.6825000000D-01
     Exponent=  1.1114000000D+00 Coefficients=  3.6848000000D-01
 P 1 1.00
     Exponent=  3.7988000000D-01 Coefficients=  1.0000000000D+00
 P 1 1.00
     Exponent=  1.2068000000D-01 Coefficients=  1.0000000000D+00
 D 1 1.00
     Exponent=  1.8000000000D+00 Coefficients=  1.0000000000D+00
 D 1 1.00
     Exponent=  5.5000000000D-01 Coefficients=  1.0000000000D+00
 F 1 1.00
     Exponent=  1.0200000000D+00 Coefficients=  1.0000000000D+00
 ****
 Centers:       1     13
 S 7 1.00
     Exponent=  1.4782000000D+04 Coefficients=  5.3519000000D-04
     Exponent=  2.2173000000D+03 Coefficients=  4.1375000000D-03
     Exponent=  5.0474000000D+02 Coefficients=  2.1245000000D-02
     Exponent=  1.4287000000D+02 Coefficients=  8.2453000000D-02
     Exponent=  4.6300000000D+01 Coefficients=  2.3671000000D-01
     Exponent=  1.6337000000D+01 Coefficients=  4.4039000000D-01
     Exponent=  5.9828000000D+00 Coefficients=  3.6465000000D-01
 S 7 1.00
     Exponent=  2.2173000000D+03 Coefficients= -1.9275000000D-06
     Exponent=  5.0474000000D+02 Coefficients= -5.7964000000D-05
     Exponent=  1.4287000000D+02 Coefficients= -7.9494000000D-04
     Exponent=  4.6300000000D+01 Coefficients= -7.3125000000D-03
     Exponent=  1.6337000000D+01 Coefficients= -4.0574000000D-02
     Exponent=  5.9828000000D+00 Coefficients= -9.1594000000D-02
     Exponent=  1.6718000000D+00 Coefficients=  2.0940000000D-01
 S 1 1.00
     Exponent=  6.4662000000D-01 Coefficients=  1.0000000000D+00
 S 1 1.00
     Exponent=  2.1669000000D-01 Coefficients=  1.0000000000D+00
 P 4 1.00
     Exponent=  6.0424000000D+01 Coefficients=  6.8949000000D-03
     Exponent=  1.3935000000D+01 Coefficients=  4.9005000000D-02
     Exponent=  4.1531000000D+00 Coefficients=  1.8255000000D-01
     Exponent=  1.4158000000D+00 Coefficients=  3.7633000000D-01
 P 1 1.00
     Exponent=  4.7549000000D-01 Coefficients=  1.0000000000D+00
 P 1 1.00
     Exponent=  1.4529000000D-01 Coefficients=  1.0000000000D+00
 D 1 1.00
     Exponent=  2.2000000000D+00 Coefficients=  1.0000000000D+00
 D 1 1.00
     Exponent=  6.5000000000D-01 Coefficients=  1.0000000000D+00
 F 1 1.00
     Exponent=  1.1000000000D+00 Coefficients=  1.0000000000D+00
 ****
 Ernie: Thresh=  0.10000D-02 Tol=  0.10000D-05 Strict=F.
 Ernie:  8 primitive shells out of 263 were deleted.
 There are   385 symmetry adapted cartesian basis functions of A   symmetry.
 There are   338 symmetry adapted basis functions of A   symmetry.
   338 basis functions,   566 primitive gaussians,   385 cartesian basis functions
    30 alpha electrons       30 beta electrons
       nuclear repulsion energy       376.3659252883 Hartrees.
 IExCor= 4235 DFT=T Ex+Corr=M06 ExCW=0 ScaHFX=  0.270000
 ScaDFX=  1.000000  1.000000  1.000000  1.000000 ScalE2=  1.000000  1.000000
 IRadAn=      0 IRanWt=     -1 IRanGd=            0 ICorTp=0 IEmpDi=  4
 NAtoms=   15 NActive=   15 NUniq=   15 SFac= 1.00D+00 NAtFMM=   60 NAOKFM=F Big=F
 Integral buffers will be    131072 words long.
 Raffenetti 2 integral format.
 Two-electron integral symmetry is turned on.
 Leave Link  301 at Sat Aug 28 01:05:20 2021, MaxMem= 17179869184 cpu:       127.9
 (Enter /public3/home/sc51754/softwares/g09e01/l302.exe)
 NPDir=0 NMtPBC=     1 NCelOv=     1 NCel=       1 NClECP=     1 NCelD=      1
         NCelK=      1 NCelE2=     1 NClLst=     1 CellRange=     0.0.
 One-electron integrals computed using PRISM.
 NBasis=   338 RedAO= T EigKep=  1.43D-04  NBF=   338
 NBsUse=   338 1.00D-06 EigRej= -1.00D+00 NBFU=   338
 Precomputing XC quadrature grid using
 IXCGrd= 4 IRadAn=           0 IRanWt=          -1 IRanGd=           0 AccXCQ= 0.00D+00.
 Generated NRdTot=       0 NPtTot=           0 NUsed=           0 NTot=          32
 NSgBfM=   385   385   385   385   385 MxSgAt=    15 MxSgA2=    15.
 Leave Link  302 at Sat Aug 28 01:05:22 2021, MaxMem= 17179869184 cpu:        62.7
 (Enter /public3/home/sc51754/softwares/g09e01/l303.exe)
 DipDrv:  MaxL=1.
 Leave Link  303 at Sat Aug 28 01:05:23 2021, MaxMem= 17179869184 cpu:        17.9
 (Enter /public3/home/sc51754/softwares/g09e01/l401.exe)
 ExpMin= 7.41D-02 ExpMax= 1.48D+04 ExpMxC= 5.05D+02 IAcc=2 IRadAn=         4 AccDes= 0.00D+00
 Harris functional with IExCor= 1009 and IRadAn=       4 diagonalized for initial guess.
 HarFok:  IExCor= 1009 AccDes= 0.00D+00 IRadAn=         4 IDoV= 1 UseB2=F ITyADJ=14
 ICtDFT=  3500011 ScaDFX=  1.000000  1.000000  1.000000  1.000000
 FoFCou: FMM=F IPFlag=           0 FMFlag=      100000 FMFlg1=           0
         NFxFlg=           0 DoJE=T BraDBF=F KetDBF=T FulRan=T
         wScrn=  0.000000 ICntrl=     500 IOpCl=  0 I1Cent=   200000004 NGrid=           0
         NMat0=    1 NMatS0=      1 NMatT0=    0 NMatD0=    1 NMtDS0=    0 NMtDT0=    0
 Petite list used in FoFCou.
 Harris En= -399.741933402671    
 JPrj=0 DoOrth=F DoCkMO=F.
 Leave Link  401 at Sat Aug 28 01:05:24 2021, MaxMem= 17179869184 cpu:        63.3
 (Enter /public3/home/sc51754/softwares/g09e01/l502.exe)
 Closed shell SCF:
 Using DIIS extrapolation, IDIIS=  1040.
 Integral symmetry usage will be decided dynamically.
 Keep R1 ints in memory in canonical form, NReq=1670404686.
 IVT=      490665 IEndB=      490665 NGot= 17179869184 MDV= 15538220534
 LenX= 15538220534 LenY= 15538071868
 Requested convergence on RMS density matrix=1.00D-08 within 128 cycles.
 Requested convergence on MAX density matrix=1.00D-06.
 Requested convergence on             energy=1.00D-06.
 No special actions if energy rises.
 FoFCou: FMM=F IPFlag=           0 FMFlag=           0 FMFlg1=           0
         NFxFlg=           0 DoJE=F BraDBF=F KetDBF=F FulRan=T
         wScrn=  0.000000 ICntrl=     600 IOpCl=  0 I1Cent=           0 NGrid=           0
         NMat0=    1 NMatS0=  57291 NMatT0=    0 NMatD0=    1 NMtDS0=    0 NMtDT0=    0
 Symmetry not used in FoFCou.
 Integral accuracy reduced to 1.0D-05 until final iterations.

 Cycle   1  Pass 0  IDiag  1:
 E= -399.606733137191    
 DIIS: error= 1.85D-02 at cycle   1 NSaved=   1.
 NSaved= 1 IEnMin= 1 EnMin= -399.606733137191     IErMin= 1 ErrMin= 1.85D-02
 ErrMax= 1.85D-02  0.00D+00 EMaxC= 1.00D-01 BMatC= 2.54D-01 BMatP= 2.54D-01
 IDIUse=3 WtCom= 8.15D-01 WtEn= 1.85D-01
 Coeff-Com:  0.100D+01
 Coeff-En:   0.100D+01
 Coeff:      0.100D+01
 Gap=     0.192 Goal=   None    Shift=    0.000
 GapD=    0.192 DampG=1.000 DampE=0.500 DampFc=0.5000 IDamp=-1.
 Damping current iteration by 5.00D-01
 RMSDP=2.92D-03 MaxDP=1.09D-01              OVMax= 1.85D-01

 Cycle   2  Pass 0  IDiag  1:
 E= -399.686786866968     Delta-E=       -0.080053729777 Rises=F Damp=T
 DIIS: error= 4.21D-03 at cycle   2 NSaved=   2.
 NSaved= 2 IEnMin= 2 EnMin= -399.686786866968     IErMin= 2 ErrMin= 4.21D-03
 ErrMax= 4.21D-03  0.00D+00 EMaxC= 1.00D-01 BMatC= 1.45D-02 BMatP= 2.54D-01
 IDIUse=3 WtCom= 9.58D-01 WtEn= 4.21D-02
 Coeff-Com:  0.963D-01 0.904D+00
 Coeff-En:   0.184D+00 0.816D+00
 Coeff:      0.100D+00 0.900D+00
 Gap=     0.257 Goal=   None    Shift=    0.000
 RMSDP=9.97D-04 MaxDP=2.96D-02 DE=-8.01D-02 OVMax= 1.31D-01

 Cycle   3  Pass 0  IDiag  1:
 E= -399.794472305380     Delta-E=       -0.107685438412 Rises=F Damp=F
 DIIS: error= 3.65D-03 at cycle   3 NSaved=   3.
 NSaved= 3 IEnMin= 3 EnMin= -399.794472305380     IErMin= 3 ErrMin= 3.65D-03
 ErrMax= 3.65D-03  0.00D+00 EMaxC= 1.00D-01 BMatC= 1.24D-02 BMatP= 1.45D-02
 IDIUse=3 WtCom= 9.64D-01 WtEn= 3.65D-02
 Coeff-Com:  0.152D-02 0.477D+00 0.521D+00
 Coeff-En:   0.000D+00 0.000D+00 0.100D+01
 Coeff:      0.147D-02 0.460D+00 0.539D+00
 Gap=     0.208 Goal=   None    Shift=    0.000
 RMSDP=3.30D-04 MaxDP=2.00D-02 DE=-1.08D-01 OVMax= 4.18D-02

 Cycle   4  Pass 0  IDiag  1:
 E= -399.803034984794     Delta-E=       -0.008562679414 Rises=F Damp=F
 DIIS: error= 2.00D-03 at cycle   4 NSaved=   4.
 NSaved= 4 IEnMin= 4 EnMin= -399.803034984794     IErMin= 4 ErrMin= 2.00D-03
 ErrMax= 2.00D-03  0.00D+00 EMaxC= 1.00D-01 BMatC= 2.34D-03 BMatP= 1.24D-02
 IDIUse=3 WtCom= 9.80D-01 WtEn= 2.00D-02
 Coeff-Com: -0.185D-01 0.124D+00 0.330D+00 0.565D+00
 Coeff-En:   0.000D+00 0.000D+00 0.171D+00 0.829D+00
 Coeff:     -0.182D-01 0.122D+00 0.327D+00 0.570D+00
 Gap=     0.210 Goal=   None    Shift=    0.000
 RMSDP=1.24D-04 MaxDP=6.67D-03 DE=-8.56D-03 OVMax= 1.44D-02

 Cycle   5  Pass 0  IDiag  1:
 E= -399.804969545772     Delta-E=       -0.001934560978 Rises=F Damp=F
 DIIS: error= 3.52D-04 at cycle   5 NSaved=   5.
 NSaved= 5 IEnMin= 5 EnMin= -399.804969545772     IErMin= 5 ErrMin= 3.52D-04
 ErrMax= 3.52D-04  0.00D+00 EMaxC= 1.00D-01 BMatC= 7.87D-05 BMatP= 2.34D-03
 IDIUse=3 WtCom= 9.96D-01 WtEn= 3.52D-03
 Coeff-Com: -0.877D-02 0.249D-01 0.107D+00 0.242D+00 0.635D+00
 Coeff-En:   0.000D+00 0.000D+00 0.000D+00 0.000D+00 0.100D+01
 Coeff:     -0.874D-02 0.248D-01 0.106D+00 0.242D+00 0.636D+00
 Gap=     0.209 Goal=   None    Shift=    0.000
 RMSDP=2.88D-05 MaxDP=1.48D-03 DE=-1.93D-03 OVMax= 3.39D-03

 Cycle   6  Pass 0  IDiag  1:
 E= -399.805026995264     Delta-E=       -0.000057449491 Rises=F Damp=F
 DIIS: error= 1.77D-04 at cycle   6 NSaved=   6.
 NSaved= 6 IEnMin= 6 EnMin= -399.805026995264     IErMin= 6 ErrMin= 1.77D-04
 ErrMax= 1.77D-04  0.00D+00 EMaxC= 1.00D-01 BMatC= 1.49D-05 BMatP= 7.87D-05
 IDIUse=3 WtCom= 9.98D-01 WtEn= 1.77D-03
 Coeff-Com: -0.315D-02 0.181D-02 0.234D-01 0.672D-01 0.344D+00 0.567D+00
 Coeff-En:   0.000D+00 0.000D+00 0.000D+00 0.000D+00 0.112D+00 0.888D+00
 Coeff:     -0.315D-02 0.180D-02 0.234D-01 0.671D-01 0.344D+00 0.567D+00
 Gap=     0.210 Goal=   None    Shift=    0.000
 RMSDP=9.31D-06 MaxDP=4.87D-04 DE=-5.74D-05 OVMax= 1.17D-03

 Initial convergence to 1.0D-05 achieved.  Increase integral accuracy.
 Cycle   7  Pass 1  IDiag  1:
 E= -399.805464708772     Delta-E=       -0.000437713509 Rises=F Damp=F
 DIIS: error= 5.08D-04 at cycle   1 NSaved=   1.
 NSaved= 1 IEnMin= 1 EnMin= -399.805464708772     IErMin= 1 ErrMin= 5.08D-04
 ErrMax= 5.08D-04  0.00D+00 EMaxC= 1.00D-01 BMatC= 9.14D-05 BMatP= 9.14D-05
 IDIUse=3 WtCom= 9.95D-01 WtEn= 5.08D-03
 Coeff-Com:  0.100D+01
 Coeff-En:   0.100D+01
 Coeff:      0.100D+01
 Gap=     0.210 Goal=   None    Shift=    0.000
 RMSDP=9.31D-06 MaxDP=4.87D-04 DE=-4.38D-04 OVMax= 1.18D-03

 Cycle   8  Pass 1  IDiag  1:
 E= -399.805500626159     Delta-E=       -0.000035917386 Rises=F Damp=F
 DIIS: error= 1.17D-04 at cycle   2 NSaved=   2.
 NSaved= 2 IEnMin= 2 EnMin= -399.805500626159     IErMin= 2 ErrMin= 1.17D-04
 ErrMax= 1.17D-04  0.00D+00 EMaxC= 1.00D-01 BMatC= 3.57D-06 BMatP= 9.14D-05
 IDIUse=3 WtCom= 9.99D-01 WtEn= 1.17D-03
 Coeff-Com:  0.115D+00 0.885D+00
 Coeff-En:   0.000D+00 0.100D+01
 Coeff:      0.115D+00 0.885D+00
 Gap=     0.210 Goal=   None    Shift=    0.000
 RMSDP=7.32D-06 MaxDP=3.85D-04 DE=-3.59D-05 OVMax= 1.02D-03

 Cycle   9  Pass 1  IDiag  1:
 E= -399.805500833865     Delta-E=       -0.000000207707 Rises=F Damp=F
 DIIS: error= 1.16D-04 at cycle   3 NSaved=   3.
 NSaved= 3 IEnMin= 3 EnMin= -399.805500833865     IErMin= 3 ErrMin= 1.16D-04
 ErrMax= 1.16D-04  0.00D+00 EMaxC= 1.00D-01 BMatC= 1.93D-06 BMatP= 3.57D-06
 IDIUse=3 WtCom= 9.99D-01 WtEn= 1.16D-03
 Coeff-Com:  0.389D-01 0.442D+00 0.519D+00
 Coeff-En:   0.000D+00 0.473D+00 0.527D+00
 Coeff:      0.388D-01 0.442D+00 0.519D+00
 Gap=     0.210 Goal=   None    Shift=    0.000
 RMSDP=4.49D-06 MaxDP=2.66D-04 DE=-2.08D-07 OVMax= 9.02D-04

 Cycle  10  Pass 1  IDiag  1:
 E= -399.805502428487     Delta-E=       -0.000001594622 Rises=F Damp=F
 DIIS: error= 4.99D-05 at cycle   4 NSaved=   4.
 NSaved= 4 IEnMin= 4 EnMin= -399.805502428487     IErMin= 4 ErrMin= 4.99D-05
 ErrMax= 4.99D-05  0.00D+00 EMaxC= 1.00D-01 BMatC= 3.52D-07 BMatP= 1.93D-06
 IDIUse=1 WtCom= 1.00D+00 WtEn= 0.00D+00
 Coeff-Com: -0.163D-02 0.728D-01 0.309D+00 0.620D+00
 Coeff:     -0.163D-02 0.728D-01 0.309D+00 0.620D+00
 Gap=     0.210 Goal=   None    Shift=    0.000
 RMSDP=1.49D-06 MaxDP=7.21D-05 DE=-1.59D-06 OVMax= 2.86D-04

 Cycle  11  Pass 1  IDiag  1:
 E= -399.805502779568     Delta-E=       -0.000000351081 Rises=F Damp=F
 DIIS: error= 4.07D-06 at cycle   5 NSaved=   5.
 NSaved= 5 IEnMin= 5 EnMin= -399.805502779568     IErMin= 5 ErrMin= 4.07D-06
 ErrMax= 4.07D-06  0.00D+00 EMaxC= 1.00D-01 BMatC= 1.08D-08 BMatP= 3.52D-07
 IDIUse=1 WtCom= 1.00D+00 WtEn= 0.00D+00
 Coeff-Com: -0.188D-02 0.245D-01 0.142D+00 0.311D+00 0.524D+00
 Coeff:     -0.188D-02 0.245D-01 0.142D+00 0.311D+00 0.524D+00
 Gap=     0.210 Goal=   None    Shift=    0.000
 RMSDP=2.91D-07 MaxDP=1.61D-05 DE=-3.51D-07 OVMax= 3.99D-05

 Cycle  12  Pass 1  IDiag  1:
 E= -399.805502786585     Delta-E=       -0.000000007016 Rises=F Damp=F
 DIIS: error= 1.44D-06 at cycle   6 NSaved=   6.
 NSaved= 6 IEnMin= 6 EnMin= -399.805502786585     IErMin= 6 ErrMin= 1.44D-06
 ErrMax= 1.44D-06  0.00D+00 EMaxC= 1.00D-01 BMatC= 1.93D-09 BMatP= 1.08D-08
 IDIUse=1 WtCom= 1.00D+00 WtEn= 0.00D+00
 Coeff-Com: -0.701D-03-0.324D-02 0.920D-02 0.336D-01 0.303D+00 0.658D+00
 Coeff:     -0.701D-03-0.324D-02 0.920D-02 0.336D-01 0.303D+00 0.658D+00
 Gap=     0.210 Goal=   None    Shift=    0.000
 RMSDP=1.05D-07 MaxDP=5.94D-06 DE=-7.02D-09 OVMax= 1.08D-05

 Cycle  13  Pass 1  IDiag  1:
 E= -399.805502787917     Delta-E=       -0.000000001332 Rises=F Damp=F
 DIIS: error= 5.38D-07 at cycle   7 NSaved=   7.
 NSaved= 7 IEnMin= 7 EnMin= -399.805502787917     IErMin= 7 ErrMin= 5.38D-07
 ErrMax= 5.38D-07  0.00D+00 EMaxC= 1.00D-01 BMatC= 1.61D-10 BMatP= 1.93D-09
 IDIUse=1 WtCom= 1.00D+00 WtEn= 0.00D+00
 Coeff-Com: -0.203D-03-0.370D-02-0.739D-02-0.963D-02 0.112D+00 0.336D+00
 Coeff-Com:  0.573D+00
 Coeff:     -0.203D-03-0.370D-02-0.739D-02-0.963D-02 0.112D+00 0.336D+00
 Coeff:      0.573D+00
 Gap=     0.210 Goal=   None    Shift=    0.000
 RMSDP=3.38D-08 MaxDP=2.12D-06 DE=-1.33D-09 OVMax= 3.96D-06

 Cycle  14  Pass 1  IDiag  1:
 E= -399.805502788020     Delta-E=       -0.000000000103 Rises=F Damp=F
 DIIS: error= 2.06D-07 at cycle   8 NSaved=   8.
 NSaved= 8 IEnMin= 8 EnMin= -399.805502788020     IErMin= 8 ErrMin= 2.06D-07
 ErrMax= 2.06D-07  0.00D+00 EMaxC= 1.00D-01 BMatC= 1.77D-11 BMatP= 1.61D-10
 IDIUse=1 WtCom= 1.00D+00 WtEn= 0.00D+00
 Coeff-Com:  0.227D-04-0.118D-02-0.500D-02-0.104D-01 0.351D-02 0.504D-01
 Coeff-Com:  0.279D+00 0.684D+00
 Coeff:      0.227D-04-0.118D-02-0.500D-02-0.104D-01 0.351D-02 0.504D-01
 Coeff:      0.279D+00 0.684D+00
 Gap=     0.210 Goal=   None    Shift=    0.000
 RMSDP=1.17D-08 MaxDP=3.89D-07 DE=-1.03D-10 OVMax= 1.42D-06

 Cycle  15  Pass 1  IDiag  1:
 E= -399.805502788063     Delta-E=       -0.000000000043 Rises=F Damp=F
 DIIS: error= 4.39D-08 at cycle   9 NSaved=   9.
 NSaved= 9 IEnMin= 9 EnMin= -399.805502788063     IErMin= 9 ErrMin= 4.39D-08
 ErrMax= 4.39D-08  0.00D+00 EMaxC= 1.00D-01 BMatC= 8.30D-13 BMatP= 1.77D-11
 IDIUse=1 WtCom= 1.00D+00 WtEn= 0.00D+00
 Coeff-Com:  0.204D-04-0.237D-03-0.147D-02-0.353D-02-0.468D-02-0.208D-02
 Coeff-Com:  0.650D-01 0.241D+00 0.706D+00
 Coeff:      0.204D-04-0.237D-03-0.147D-02-0.353D-02-0.468D-02-0.208D-02
 Coeff:      0.650D-01 0.241D+00 0.706D+00
 Gap=     0.210 Goal=   None    Shift=    0.000
 RMSDP=3.46D-09 MaxDP=2.66D-07 DE=-4.27D-11 OVMax= 5.52D-07

 SCF Done:  E(RM06) =  -399.805502788     A.U. after   15 cycles
            NFock= 15  Conv=0.35D-08     -V/T= 2.0007
 KE= 3.995402049498D+02 PE=-1.689691361534D+03 EE= 5.139797285074D+02
 Leave Link  502 at Sat Aug 28 01:05:51 2021, MaxMem= 17179869184 cpu:       460.7
 (Enter /public3/home/sc51754/softwares/g09e01/l801.exe)
 DoSCS=F DFT=T ScalE2(SS,OS)=  1.000000  1.000000
 Range of M.O.s used for correlation:     1   338
 NBasis=   338 NAE=    30 NBE=    30 NFC=     0 NFV=     0
 NROrb=    338 NOA=    30 NOB=    30 NVA=   308 NVB=   308

 **** Warning!!: The largest alpha MO coefficient is  0.18626301D+02

 Leave Link  801 at Sat Aug 28 01:05:51 2021, MaxMem= 17179869184 cpu:         0.8
 (Enter /public3/home/sc51754/softwares/g09e01/l1101.exe)
 Using compressed storage, NAtomX=    15.
 Will process     16 centers per pass.
 Leave Link 1101 at Sat Aug 28 01:05:52 2021, MaxMem= 17179869184 cpu:        64.8
 (Enter /public3/home/sc51754/softwares/g09e01/l1102.exe)
 Symmetrizing basis deriv contribution to polar:
 IMax=3 JMax=2 DiffMx= 0.00D+00
 Leave Link 1102 at Sat Aug 28 01:05:53 2021, MaxMem= 17179869184 cpu:        17.3
 (Enter /public3/home/sc51754/softwares/g09e01/l1110.exe)
 Forming Gx(P) for the SCF density, NAtomX=    15.
 Integral derivatives from FoFJK, PRISM(SPDF).
 Do as many integral derivatives as possible in FoFJK.
 G2DrvN: MDV=   17179868960.
 G2DrvN: will do    16 centers at a time, making    1 passes.
 Calling FoFCou, ICntrl=  3107 FMM=F I1Cent=   0 AccDes= 0.00D+00.
 FoFJK:  IHMeth= 1 ICntrl=    3107 DoSepK=F KAlg= 0 I1Cent=   0 FoldK=F
 IRaf=         0 NMat=   1 IRICut=       1 DoRegI=T DoRafI=F ISym2E= 0.
 FoFCou: FMM=F IPFlag=           0 FMFlag=      100000 FMFlg1=           0
         NFxFlg=           0 DoJE=F BraDBF=F KetDBF=F FulRan=T
         wScrn=  0.000000 ICntrl=    3107 IOpCl=  0 I1Cent=           0 NGrid=           0
         NMat0=    1 NMatS0=      1 NMatT0=    0 NMatD0=    1 NMtDS0=    0 NMtDT0=    0
 Symmetry not used in FoFCou.
 End of G2Drv F.D. properties file   721 does not exist.
 End of G2Drv F.D. properties file   722 does not exist.
 End of G2Drv F.D. properties file   788 does not exist.
 Leave Link 1110 at Sat Aug 28 01:06:10 2021, MaxMem= 17179869184 cpu:       972.7
 (Enter /public3/home/sc51754/softwares/g09e01/l1002.exe)
 Minotr:  Closed shell wavefunction.
          IDoAtm=111111111111111
          Direct CPHF calculation.
          Differentiating once with respect to nuclear coordinates.
          Requested convergence is 1.0D-08 RMS, and 1.0D-07 maximum.
          Secondary convergence is 1.0D-12 RMS, and 1.0D-12 maximum.
          NewPWx=T KeepS1=F KeepF1=F KeepIn=T MapXYZ=F SortEE=F KeepMc=T.
          MDV=   17179868692 using IRadAn=       2.
 Generate precomputed XC quadrature information.
 Keep R1 ints in memory in canonical form, NReq=1669919891.
 FoFCou: FMM=F IPFlag=           0 FMFlag=           0 FMFlg1=           0
         NFxFlg=           0 DoJE=F BraDBF=F KetDBF=F FulRan=T
         wScrn=  0.000000 ICntrl=     600 IOpCl=  0 I1Cent=           0 NGrid=           0
         NMat0=    1 NMatS0=  57291 NMatT0=    0 NMatD0=    1 NMtDS0=    0 NMtDT0=    0
 Symmetry not used in FoFCou.
          Solving linear equations simultaneously, MaxMat=       0.
          There are    48 degrees of freedom in the 1st order CPHF.  IDoFFX=6 NUNeed=     0.
     42 vectors produced by pass  0 Test12= 1.92D-14 2.08D-09 XBig12= 1.20D-01 1.22D-01.
 AX will form    42 AO Fock derivatives at one time.
     42 vectors produced by pass  1 Test12= 1.92D-14 2.08D-09 XBig12= 1.71D-02 2.85D-02.
     42 vectors produced by pass  2 Test12= 1.92D-14 2.08D-09 XBig12= 3.23D-04 2.72D-03.
     42 vectors produced by pass  3 Test12= 1.92D-14 2.08D-09 XBig12= 2.50D-06 3.01D-04.
     42 vectors produced by pass  4 Test12= 1.92D-14 2.08D-09 XBig12= 1.59D-08 1.93D-05.
     42 vectors produced by pass  5 Test12= 1.92D-14 2.08D-09 XBig12= 1.07D-10 1.19D-06.
     33 vectors produced by pass  6 Test12= 1.92D-14 2.08D-09 XBig12= 5.41D-13 8.89D-08.
     10 vectors produced by pass  7 Test12= 1.92D-14 2.08D-09 XBig12= 2.57D-15 5.14D-09.
 InvSVY:  IOpt=1 It=  1 EMax= 1.55D-15
 Solved reduced A of dimension   295 with    42 vectors.
 End of Minotr F.D. properties file   721 does not exist.
 End of Minotr F.D. properties file   722 does not exist.
 End of Minotr F.D. properties file   788 does not exist.
 Leave Link 1002 at Sat Aug 28 01:06:35 2021, MaxMem= 17179869184 cpu:      1600.1
 (Enter /public3/home/sc51754/softwares/g09e01/l601.exe)
 Copying SCF densities to generalized density rwf, IOpCl= 0 IROHF=0.

 **********************************************************************

            Population analysis using the SCF density.

 **********************************************************************

 Orbital symmetries:
       Occupied  (A) (A) (A) (A) (A) (A) (A) (A) (A) (A) (A) (A)
                 (A) (A) (A) (A) (A) (A) (A) (A) (A) (A) (A) (A)
                 (A) (A) (A) (A) (A) (A)
       Virtual   (A) (A) (A) (A) (A) (A) (A) (A) (A) (A) (A) (A)
                 (A) (A) (A) (A) (A) (A) (A) (A) (A) (A) (A) (A)
                 (A) (A) (A) (A) (A) (A) (A) (A) (A) (A) (A) (A)
                 (A) (A) (A) (A) (A) (A) (A) (A) (A) (A) (A) (A)
                 (A) (A) (A) (A) (A) (A) (A) (A) (A) (A) (A) (A)
                 (A) (A) (A) (A) (A) (A) (A) (A) (A) (A) (A) (A)
                 (A) (A) (A) (A) (A) (A) (A) (A) (A) (A) (A) (A)
                 (A) (A) (A) (A) (A) (A) (A) (A) (A) (A) (A) (A)
                 (A) (A) (A) (A) (A) (A) (A) (A) (A) (A) (A) (A)
                 (A) (A) (A) (A) (A) (A) (A) (A) (A) (A) (A) (A)
                 (A) (A) (A) (A) (A) (A) (A) (A) (A) (A) (A) (A)
                 (A) (A) (A) (A) (A) (A) (A) (A) (A) (A) (A) (A)
                 (A) (A) (A) (A) (A) (A) (A) (A) (A) (A) (A) (A)
                 (A) (A) (A) (A) (A) (A) (A) (A) (A) (A) (A) (A)
                 (A) (A) (A) (A) (A) (A) (A) (A) (A) (A) (A) (A)
                 (A) (A) (A) (A) (A) (A) (A) (A) (A) (A) (A) (A)
                 (A) (A) (A) (A) (A) (A) (A) (A) (A) (A) (A) (A)
                 (A) (A) (A) (A) (A) (A) (A) (A) (A) (A) (A) (A)
                 (A) (A) (A) (A) (A) (A) (A) (A) (A) (A) (A) (A)
                 (A) (A) (A) (A) (A) (A) (A) (A) (A) (A) (A) (A)
                 (A) (A) (A) (A) (A) (A) (A) (A) (A) (A) (A) (A)
                 (A) (A) (A) (A) (A) (A) (A) (A) (A) (A) (A) (A)
                 (A) (A) (A) (A) (A) (A) (A) (A) (A) (A) (A) (A)
                 (A) (A) (A) (A) (A) (A) (A) (A) (A) (A) (A) (A)
                 (A) (A) (A) (A) (A) (A) (A) (A) (A) (A) (A) (A)
                 (A) (A) (A) (A) (A) (A) (A) (A)
 The electronic state is 1-A.
 Alpha  occ. eigenvalues --  -19.20429 -19.17134 -14.39193 -10.33052 -10.28726
 Alpha  occ. eigenvalues --  -10.26075 -10.24207 -10.23895  -1.13319  -1.03882
 Alpha  occ. eigenvalues --   -0.96703  -0.82956  -0.76849  -0.67927  -0.63768
 Alpha  occ. eigenvalues --   -0.60267  -0.57322  -0.51968  -0.49798  -0.47416
 Alpha  occ. eigenvalues --   -0.46083  -0.44255  -0.42436  -0.40454  -0.38683
 Alpha  occ. eigenvalues --   -0.35738  -0.31881  -0.31568  -0.29260  -0.24447
 Alpha virt. eigenvalues --   -0.03491   0.00037   0.00320   0.01135   0.02032
 Alpha virt. eigenvalues --    0.03689   0.05250   0.10319   0.11028   0.13379
 Alpha virt. eigenvalues --    0.15228   0.16726   0.16827   0.17643   0.19520
 Alpha virt. eigenvalues --    0.20062   0.21285   0.22037   0.23024   0.24520
 Alpha virt. eigenvalues --    0.26483   0.26596   0.27042   0.28207   0.28489
 Alpha virt. eigenvalues --    0.29640   0.30852   0.31926   0.34359   0.35545
 Alpha virt. eigenvalues --    0.36330   0.37973   0.38588   0.39610   0.41620
 Alpha virt. eigenvalues --    0.42494   0.42799   0.44011   0.45172   0.48442
 Alpha virt. eigenvalues --    0.49632   0.51078   0.53629   0.55794   0.57282
 Alpha virt. eigenvalues --    0.58761   0.60074   0.60436   0.63051   0.63403
 Alpha virt. eigenvalues --    0.64069   0.65056   0.67882   0.72823   0.74289
 Alpha virt. eigenvalues --    0.76554   0.77399   0.80350   0.81619   0.82521
 Alpha virt. eigenvalues --    0.87857   0.89734   0.90299   0.92374   0.94317
 Alpha virt. eigenvalues --    0.94479   0.95777   0.97036   1.00855   1.03504
 Alpha virt. eigenvalues --    1.05897   1.06372   1.07202   1.10329   1.10710
 Alpha virt. eigenvalues --    1.13945   1.14275   1.14889   1.15524   1.19525
 Alpha virt. eigenvalues --    1.21614   1.23088   1.25231   1.25885   1.28065
 Alpha virt. eigenvalues --    1.29993   1.32660   1.34972   1.37980   1.39510
 Alpha virt. eigenvalues --    1.40058   1.43053   1.45638   1.47711   1.48629
 Alpha virt. eigenvalues --    1.49921   1.51375   1.56341   1.57786   1.58539
 Alpha virt. eigenvalues --    1.59241   1.61527   1.63224   1.65293   1.66458
 Alpha virt. eigenvalues --    1.68145   1.70252   1.73599   1.75218   1.80576
 Alpha virt. eigenvalues --    1.82523   1.83616   1.85002   1.86742   1.88091
 Alpha virt. eigenvalues --    1.89477   1.95242   1.97080   1.99683   2.02546
 Alpha virt. eigenvalues --    2.03568   2.07858   2.09216   2.09858   2.12224
 Alpha virt. eigenvalues --    2.15728   2.16675   2.19290   2.22845   2.24459
 Alpha virt. eigenvalues --    2.26059   2.27112   2.27489   2.32541   2.39881
 Alpha virt. eigenvalues --    2.42974   2.55369   2.59719   2.63567   2.76253
 Alpha virt. eigenvalues --    2.83525   2.86209   2.90925   2.92263   2.95550
 Alpha virt. eigenvalues --    3.10572   3.12838   3.13128   3.16067   3.18320
 Alpha virt. eigenvalues --    3.21604   3.25276   3.29159   3.29732   3.31855
 Alpha virt. eigenvalues --    3.33803   3.36090   3.38172   3.40242   3.43823
 Alpha virt. eigenvalues --    3.45038   3.48599   3.50660   3.53253   3.55643
 Alpha virt. eigenvalues --    3.57720   3.58604   3.60258   3.61453   3.63439
 Alpha virt. eigenvalues --    3.65638   3.68395   3.70929   3.75821   3.78510
 Alpha virt. eigenvalues --    3.81071   3.81620   3.83077   3.86555   3.88162
 Alpha virt. eigenvalues --    3.89664   3.90608   3.94764   3.95084   3.98390
 Alpha virt. eigenvalues --    4.02140   4.03613   4.04755   4.05632   4.07648
 Alpha virt. eigenvalues --    4.08494   4.10495   4.12032   4.13939   4.15327
 Alpha virt. eigenvalues --    4.15779   4.18282   4.18865   4.20546   4.22649
 Alpha virt. eigenvalues --    4.24967   4.25611   4.26684   4.27935   4.28646
 Alpha virt. eigenvalues --    4.28762   4.31153   4.31605   4.34358   4.35597
 Alpha virt. eigenvalues --    4.35761   4.37219   4.38816   4.40202   4.40504
 Alpha virt. eigenvalues --    4.42561   4.44650   4.44917   4.46075   4.48366
 Alpha virt. eigenvalues --    4.53345   4.55571   4.57726   4.58911   4.60049
 Alpha virt. eigenvalues --    4.64829   4.65689   4.69619   4.72674   4.73645
 Alpha virt. eigenvalues --    4.77611   4.79078   4.81402   4.82436   4.84856
 Alpha virt. eigenvalues --    4.88603   4.91392   4.92721   4.97898   4.99582
 Alpha virt. eigenvalues --    5.00110   5.05633   5.07652   5.09473   5.10831
 Alpha virt. eigenvalues --    5.14113   5.19445   5.20227   5.20704   5.22600
 Alpha virt. eigenvalues --    5.23690   5.25001   5.26524   5.29785   5.33020
 Alpha virt. eigenvalues --    5.34469   5.37439   5.38606   5.40590   5.44517
 Alpha virt. eigenvalues --    5.46463   5.49972   5.51153   5.52763   5.56329
 Alpha virt. eigenvalues --    5.63580   5.64089   5.65199   5.73019   5.75433
 Alpha virt. eigenvalues --    5.79117   5.86769   5.90754   5.95667   6.01640
 Alpha virt. eigenvalues --    6.05151   6.09351   6.16697   6.22215   6.30727
 Alpha virt. eigenvalues --    6.33156   6.35519   6.39041   6.47196   6.55683
 Alpha virt. eigenvalues --    6.56833   6.63516   6.69486   6.75589   6.78644
 Alpha virt. eigenvalues --    6.86978   6.91126   7.01596   7.10326   7.19645
 Alpha virt. eigenvalues --    7.30173   7.42668   7.46625   7.64743   7.95004
 Alpha virt. eigenvalues --    9.51239  12.55971  13.17428  16.02599  18.13681
 Alpha virt. eigenvalues --   18.80567  22.65298  23.96570
          Condensed to atoms (all electrons):
               1          2          3          4          5          6
     1  O    8.284285  -0.080739   0.290781  -0.074805   0.006014   0.008626
     2  N   -0.080739   6.869333   0.391739  -0.013064   0.434036  -0.042535
     3  C    0.290781   0.391739   4.575371   0.437393  -0.063562  -0.024355
     4  C   -0.074805  -0.013064   0.437393   4.985115  -0.056583   0.438418
     5  C    0.006014   0.434036  -0.063562  -0.056583   4.707066  -0.037292
     6  C    0.008626  -0.042535  -0.024355   0.438418  -0.037292   4.856973
     7  C    0.000651  -0.016801  -0.063124  -0.017716   0.474525   0.385780
     8  H    0.271069  -0.006649  -0.010669   0.002545  -0.002144  -0.000611
     9  H    0.001319   0.006599  -0.060775   0.484852  -0.003318  -0.061451
    10  H   -0.000338  -0.050985   0.002878  -0.003957   0.468776   0.009655
    11  H   -0.000714  -0.002611   0.013167  -0.058715   0.010991   0.468427
    12  H    0.000067   0.008270  -0.002319   0.010294  -0.048774  -0.067735
    13  O   -0.214265  -0.162087  -0.010467  -0.003913  -0.000506   0.000819
    14  H    0.009455   0.008955   0.001380   0.000814  -0.000053  -0.000097
    15  H    0.000645   0.094570  -0.010783   0.001889  -0.000089  -0.000500
               7          8          9         10         11         12
     1  O    0.000651   0.271069   0.001319  -0.000338  -0.000714   0.000067
     2  N   -0.016801  -0.006649   0.006599  -0.050985  -0.002611   0.008270
     3  C   -0.063124  -0.010669  -0.060775   0.002878   0.013167  -0.002319
     4  C   -0.017716   0.002545   0.484852  -0.003957  -0.058715   0.010294
     5  C    0.474525  -0.002144  -0.003318   0.468776   0.010991  -0.048774
     6  C    0.385780  -0.000611  -0.061451   0.009655   0.468427  -0.067735
     7  C    5.019635   0.000148   0.012298  -0.078841  -0.069562   0.475647
     8  H    0.000148   0.396585   0.000537   0.000266  -0.000088   0.000005
     9  H    0.012298   0.000537   0.585359   0.000171  -0.016930   0.000389
    10  H   -0.078841   0.000266   0.000171   0.605593  -0.000273  -0.011270
    11  H   -0.069562  -0.000088  -0.016930  -0.000273   0.625883  -0.016270
    12  H    0.475647   0.000005   0.000389  -0.011270  -0.016270   0.621068
    13  O   -0.001870   0.208546   0.000121   0.000680  -0.000033   0.000048
    14  H    0.000280  -0.015201  -0.000023  -0.000202   0.000009  -0.000013
    15  H    0.000831  -0.021138  -0.000293  -0.001876   0.000143  -0.000055
              13         14         15
     1  O   -0.214265   0.009455   0.000645
     2  N   -0.162087   0.008955   0.094570
     3  C   -0.010467   0.001380  -0.010783
     4  C   -0.003913   0.000814   0.001889
     5  C   -0.000506  -0.000053  -0.000089
     6  C    0.000819  -0.000097  -0.000500
     7  C   -0.001870   0.000280   0.000831
     8  H    0.208546  -0.015201  -0.021138
     9  H    0.000121  -0.000023  -0.000293
    10  H    0.000680  -0.000202  -0.001876
    11  H   -0.000033   0.000009   0.000143
    12  H    0.000048  -0.000013  -0.000055
    13  O    7.792244   0.357642   0.310254
    14  H    0.357642   0.422201  -0.012854
    15  H    0.310254  -0.012854   0.470255
 Mulliken charges:
               1
     1  O   -0.502052
     2  N   -0.438032
     3  C    0.533345
     4  C   -0.132568
     5  C    0.110913
     6  C    0.065880
     7  C   -0.121879
     8  H    0.176801
     9  H    0.051145
    10  H    0.059723
    11  H    0.046576
    12  H    0.030649
    13  O   -0.277211
    14  H    0.227708
    15  H    0.169001
 Sum of Mulliken charges =  -0.00000
 Mulliken charges with hydrogens summed into heavy atoms:
               1
     1  O   -0.325251
     2  N   -0.438032
     3  C    0.533345
     4  C   -0.081422
     5  C    0.170636
     6  C    0.112456
     7  C   -0.091230
    13  O    0.119498
 APT charges:
               1
     1  O   -0.369302
     2  N   -0.415153
     3  C    0.306044
     4  C   -0.574144
     5  C   -0.380723
     6  C   -0.389244
     7  C   -0.561545
     8  H    0.115344
     9  H    0.471641
    10  H    0.474427
    11  H    0.602024
    12  H    0.615394
    13  O   -0.703617
    14  H    0.745482
    15  H    0.063372
 Sum of APT charges =  -0.00000
 APT charges with hydrogens summed into heavy atoms:
               1
     1  O   -0.253958
     2  N   -0.415153
     3  C    0.306044
     4  C   -0.102503
     5  C    0.093705
     6  C    0.212780
     7  C    0.053849
    13  O    0.105237
 Electronic spatial extent (au):  <R**2>=            928.3405
 Charge=             -0.0000 electrons
 Dipole moment (field-independent basis, Debye):
    X=             -1.6040    Y=             -2.0683    Z=              1.3367  Tot=              2.9390
 Quadrupole moment (field-independent basis, Debye-Ang):
   XX=            -41.8495   YY=            -44.9332   ZZ=            -48.3248
   XY=             -5.0450   XZ=              4.5030   YZ=             -1.4591
 Traceless Quadrupole moment (field-independent basis, Debye-Ang):
   XX=              3.1863   YY=              0.1027   ZZ=             -3.2890
   XY=             -5.0450   XZ=              4.5030   YZ=             -1.4591
 Octapole moment (field-independent basis, Debye-Ang**2):
  XXX=             15.5648  YYY=             -7.2307  ZZZ=              1.0240  XYY=             -1.8098
  XXY=             -9.6785  XXZ=             14.4085  XZZ=             12.6586  YZZ=             -0.9021
  YYZ=              1.5556  XYZ=             -4.8150
 Hexadecapole moment (field-independent basis, Debye-Ang**3):
 XXXX=           -691.9859 YYYY=           -323.3125 ZZZZ=            -51.4587 XXXY=            -30.8696
 XXXZ=             45.7150 YYYX=            -14.6083 YYYZ=             -1.7620 ZZZX=              4.3195
 ZZZY=             -1.5921 XXYY=           -178.0887 XXZZ=           -140.3486 YYZZ=            -71.0290
 XXYZ=            -14.4780 YYXZ=              5.2343 ZZXY=             -4.3546
 N-N= 3.763659252883D+02 E-N=-1.689691355192D+03  KE= 3.995402049498D+02
  Exact polarizability:   0.000   0.000   0.000   0.000   0.000   0.000
 Approx polarizability: 140.314   8.366 128.998   1.073  -0.724  62.996
 No NMR shielding tensors so no spin-rotation constants.
 Leave Link  601 at Sat Aug 28 01:06:37 2021, MaxMem= 17179869184 cpu:        53.3
 (Enter /public3/home/sc51754/softwares/g09e01/l701.exe)
 Compute integral second derivatives.
 ... and contract with generalized density number  0.
 Leave Link  701 at Sat Aug 28 01:06:37 2021, MaxMem= 17179869184 cpu:        44.1
 (Enter /public3/home/sc51754/softwares/g09e01/l702.exe)
 L702 exits ... SP integral derivatives will be done elsewhere.
 Leave Link  702 at Sat Aug 28 01:06:38 2021, MaxMem= 17179869184 cpu:         0.6
 (Enter /public3/home/sc51754/softwares/g09e01/l703.exe)
 Compute integral second derivatives, UseDBF=F ICtDFT=           0.
 Integral derivatives from FoFJK, PRISM(SPDF).
 Calling FoFJK, ICntrl=    100147 FMM=F ISym2X=0 I1Cent= 0 IOpClX= 0 NMat=1 NMatS=1 NMatT=0.
 FoFJK:  IHMeth= 1 ICntrl=  100147 DoSepK=F KAlg= 0 I1Cent=   0 FoldK=F
 IRaf=         0 NMat=   1 IRICut=       1 DoRegI=T DoRafI=F ISym2E= 0.
 FoFCou: FMM=F IPFlag=           0 FMFlag=      100000 FMFlg1=         800
         NFxFlg=           0 DoJE=F BraDBF=F KetDBF=F FulRan=T
         wScrn=  0.000000 ICntrl=  100147 IOpCl=  0 I1Cent=           0 NGrid=           0
         NMat0=    1 NMatS0=      1 NMatT0=    0 NMatD0=    1 NMtDS0=    0 NMtDT0=    0
 Symmetry not used in FoFCou.
 Leave Link  703 at Sat Aug 28 01:06:58 2021, MaxMem= 17179869184 cpu:      1289.5
 (Enter /public3/home/sc51754/softwares/g09e01/l716.exe)
 Dipole        =-6.31063685D-01-8.13750976D-01 5.25884856D-01
 Polarizability= 0.00000000D+00 0.00000000D+00 0.00000000D+00
                 0.00000000D+00 0.00000000D+00 0.00000000D+00
 ***** Axes restored to original set *****
 -------------------------------------------------------------------
 Center     Atomic                   Forces (Hartrees/Bohr)
 Number     Number              X              Y              Z
 -------------------------------------------------------------------
      1        8          -0.082938766    0.024805736   -0.000442206
      2        7          -0.048295421   -0.008977698    0.001312495
      3        6           0.001243663    0.055425222    0.000425330
      4        6          -0.014902947   -0.007062221    0.000053141
      5        6          -0.007761336   -0.006763485    0.000018768
      6        6           0.002300553    0.008004557    0.000006804
      7        6           0.005194638   -0.005787149   -0.000085272
      8        1           0.030304599    0.061022668    0.007406289
      9        1           0.001289619   -0.000728562   -0.000010225
     10        1           0.000070469    0.000385465   -0.000018931
     11        1          -0.000513113   -0.000223506   -0.000020766
     12        1           0.000609372   -0.000360223   -0.000021195
     13        8           0.139801789   -0.069061598   -0.005841758
     14        1           0.003972698    0.005033978   -0.000338469
     15        1          -0.030375815   -0.055713185   -0.002444006
 -------------------------------------------------------------------
 Cartesian Forces:  Max     0.139801789 RMS     0.032184468
 FormGI is forming the generalized inverse of G from B-inverse, IUseBI=4.
 Leave Link  716 at Sat Aug 28 01:06:58 2021, MaxMem= 17179869184 cpu:        10.0
 (Enter /public3/home/sc51754/softwares/g09e01/l103.exe)

 GradGradGradGradGradGradGradGradGradGradGradGradGradGradGradGradGradGrad
 Berny optimization.
 Red2BG is reusing G-inverse.
 Internal  Forces:  Max     0.084664643 RMS     0.019700594
 Search for a saddle point.
 Step number   1 out of a maximum of  100
 All quantities printed in internal units (Hartrees-Bohrs-Radians)
 Second derivative matrix not updated -- analytic derivatives used.
 ITU=  0
 LST/QST climbing along tangent vector
     Eigenvalues ---   -0.00125   0.00053   0.00358   0.00571   0.01160
     Eigenvalues ---    0.01717   0.01851   0.02093   0.02323   0.02723
     Eigenvalues ---    0.03058   0.03472   0.03785   0.05992   0.07896
     Eigenvalues ---    0.09450   0.09970   0.10379   0.11647   0.12665
     Eigenvalues ---    0.12839   0.14829   0.19169   0.20048   0.21952
     Eigenvalues ---    0.27690   0.33972   0.35110   0.35899   0.36433
     Eigenvalues ---    0.36597   0.40631   0.43153   0.46313   0.46499
     Eigenvalues ---    0.50064   0.52370   0.55025   0.557461000.00000
     Eigenvalues --- 1000.000001000.000001000.000001000.000001000.00000
     Eigenvalues --- 1000.000001000.000001000.000001000.000001000.00000
     Eigenvalues --- 1000.000001000.000001000.000001000.000001000.00000
     Eigenvalues --- 1000.000001000.000001000.000001000.000001000.00000
     Eigenvalues --- 1000.000001000.000001000.000001000.000001000.00000
     Eigenvalues --- 1000.000001000.000001000.000001000.000001000.00000
     Eigenvalues --- 1000.000001000.000001000.000001000.000001000.00000
     Eigenvalues --- 1000.000001000.000001000.000001000.000001000.00000
     Eigenvalues --- 1000.00000
 Eigenvectors required to have negative eigenvalues:
                          D38       A22       D36       A24       D34
   1                    0.57550   0.49561   0.42969   0.27941   0.19095
                          D3        D33       R15       A23       A20
   1                   -0.18856  -0.18569   0.11780   0.09361  -0.09229
 QST in optimization variable space.
 Eigenvectors 1 and  16 swapped, overlap=  1.0000
                        Tangent   TS vect  // Eig F  Eigenval
   1         R1        -0.04033   0.04033   0.02942   0.09450
   2         R2         0.33960  -0.33960   0.00049   0.00053
   3         R3         0.03024  -0.03024  -0.00018   0.00358
   4         R4         0.00735  -0.00735   0.00005   0.00571
   5         R5        -0.54084   0.54084   0.00007   0.01160
   6         R6         0.01455  -0.01455   0.00001   0.01717
   7         R7        -0.00703   0.00703   0.00008   0.01851
   8         R8         0.00000  -0.00000  -0.00006   0.02093
   9         R9        -0.00807   0.00807  -0.00008   0.02323
  10         R10       -0.00136   0.00136  -0.00001   0.02723
  11         R11        0.00779  -0.00779  -0.00001   0.03058
  12         R12        0.00028  -0.00028   0.00040   0.03472
  13         R13       -0.00061   0.00061  -0.00548   0.03785
  14         R14       -0.52615   0.52615  -0.01062   0.05992
  15         R15       -0.16491   0.16491   0.00281   0.07896
  16         R16       -0.00035   0.00035   0.00004  -0.00125
  17         R17        0.34393  -0.34393  -0.00230   0.09970
  18         A1        -0.05354   0.05354   0.00499   0.10379
  19         A2         0.01907  -0.01907  -0.00013   0.11647
  20         A3         0.00603  -0.00603   0.00321   0.12665
  21         A4        -0.02510   0.02510  -0.01127   0.12839
  22         A5         0.00755  -0.00755  -0.01514   0.14829
  23         A6         0.02301  -0.02301   0.00286   0.19169
  24         A7        -0.03057   0.03057   0.01194   0.20048
  25         A8         0.01164  -0.01164  -0.01099   0.21952
  26         A9        -0.01001   0.01001   0.01476   0.27690
  27         A10       -0.00163   0.00163  -0.01273   0.33972
  28         A11       -0.00695   0.00695   0.00269   0.35110
  29         A12       -0.00089   0.00089  -0.00269   0.35899
  30         A13        0.00783  -0.00783  -0.00457   0.36433
  31         A14        0.00590  -0.00590   0.00088   0.36597
  32         A15       -0.00170   0.00170   0.03775   0.40631
  33         A16       -0.00420   0.00420  -0.01953   0.43153
  34         A17        0.00091  -0.00091  -0.00767   0.46313
  35         A18       -0.00081   0.00081  -0.03613   0.46499
  36         A19       -0.00010   0.00010   0.00446   0.50064
  37         A20        0.04068  -0.04068   0.05168   0.52370
  38         A21       -0.22649   0.22649   0.02290   0.55025
  39         A22       -0.05433   0.05433   0.00473   0.55746
  40         A23       -0.00713   0.00713  -0.000001000.00000
  41         A24        0.09423  -0.09423   0.000001000.00000
  42         A25        0.26572  -0.26572  -0.000001000.00000
  43         A26        0.00663  -0.00663  -0.000001000.00000
  44         D1         0.00886  -0.00886  -0.000001000.00000
  45         D2         0.00926  -0.00926  -0.000001000.00000
  46         D3         0.02664  -0.02664  -0.000001000.00000
  47         D4        -0.01765   0.01765   0.000001000.00000
  48         D5         0.00123  -0.00123   0.000001000.00000
  49         D6         0.00080  -0.00080   0.000001000.00000
  50         D7         0.00527  -0.00527   0.000001000.00000
  51         D8         0.00483  -0.00483  -0.000001000.00000
  52         D9        -0.00004   0.00004   0.000001000.00000
  53         D10        0.00018  -0.00018  -0.000001000.00000
  54         D11       -0.00696   0.00696  -0.000001000.00000
  55         D12       -0.00674   0.00674  -0.000001000.00000
  56         D13       -0.01762   0.01762   0.000001000.00000
  57         D14       -0.01487   0.01487   0.000001000.00000
  58         D15       -0.01147   0.01147  -0.000001000.00000
  59         D16       -0.00872   0.00872  -0.000001000.00000
  60         D17       -0.00140   0.00140  -0.000001000.00000
  61         D18       -0.00092   0.00092   0.000001000.00000
  62         D19       -0.00097   0.00097  -0.000001000.00000
  63         D20       -0.00050   0.00050   0.000001000.00000
  64         D21        0.00040  -0.00040  -0.000001000.00000
  65         D22        0.00039  -0.00039   0.000001000.00000
  66         D23       -0.00010   0.00010  -0.000001000.00000
  67         D24       -0.00011   0.00011   0.000001000.00000
  68         D25       -0.00055   0.00055  -0.000001000.00000
  69         D26       -0.00011   0.00011  -0.000001000.00000
  70         D27       -0.00078   0.00078   0.000001000.00000
  71         D28       -0.00034   0.00034   0.000001000.00000
  72         D29        0.00033  -0.00033  -0.000001000.00000
  73         D30       -0.00011   0.00011   0.000001000.00000
  74         D31        0.00034  -0.00034   0.000001000.00000
  75         D32       -0.00010   0.00010   0.000001000.00000
  76         D33       -0.13604   0.13604  -0.000001000.00000
  77         D34       -0.02791   0.02791  -0.000001000.00000
  78         D35        0.02703  -0.02703   0.000001000.00000
  79         D36        0.03458  -0.03458   0.000001000.00000
  80         D37        0.01476  -0.01476   0.000001000.00000
  81         D38       -0.04539   0.04539  -0.000001000.00000
 RFO step:  Lambda0=1.029123500D-01 Lambda=-1.99406184D-02.
 Linear search not attempted -- option 19 set.
 Maximum step size (   0.300) exceeded in Quadratic search.
    -- Step size scaled by   0.086
 Iteration  1 RMS(Cart)=  0.02316693 RMS(Int)=  0.00157310
 Iteration  2 RMS(Cart)=  0.00062733 RMS(Int)=  0.00059655
 Iteration  3 RMS(Cart)=  0.00001550 RMS(Int)=  0.00059546
 Iteration  4 RMS(Cart)=  0.00000002 RMS(Int)=  0.00059546
 ITry= 1 IFail=0 DXMaxC= 1.50D-01 DCOld= 1.00D+10 DXMaxT= 3.00D-01 DXLimC= 3.00D+00 Rises=F
 Variable       Old X    -DE/DX   Delta X   Delta X   Delta X     New X
                                 (Linear)    (Quad)   (Total)
    R1        2.51077  -0.00951   0.00000  -0.01539  -0.01622   2.49455
    R2        1.97325   0.08455   0.00000   0.10824   0.10867   2.08192
    R3        2.50508   0.03479   0.00000   0.01107   0.01026   2.51533
    R4        2.52065   0.00626   0.00000   0.00231   0.00233   2.52298
    R5        2.51334   0.06056   0.00000  -0.15964  -0.15926   2.35408
    R6        2.64127   0.00775   0.00000   0.00526   0.00523   2.64650
    R7        2.59219  -0.00345   0.00000  -0.00256  -0.00258   2.58962
    R8        2.04110  -0.00081   0.00000   0.00001   0.00001   2.04111
    R9        2.59712  -0.00503   0.00000  -0.00287  -0.00285   2.59428
   R10        2.04976  -0.00037   0.00000  -0.00045  -0.00045   2.04930
   R11        2.62919   0.00541   0.00000   0.00284   0.00284   2.63203
   R12        2.04524   0.00038   0.00000   0.00012   0.00012   2.04536
   R13        2.04071  -0.00026   0.00000  -0.00022  -0.00022   2.04049
   R14        2.02201   0.08466   0.00000  -0.15181  -0.15315   1.86885
   R15        2.49840   0.04753   0.00000  -0.03325  -0.02977   2.46864
   R16        1.80537   0.00025   0.00000  -0.00106  -0.00106   1.80430
   R17        1.84010   0.06547   0.00000   0.11042   0.10849   1.94858
    A1        1.62213   0.02448   0.00000  -0.00709  -0.00720   1.61492
    A2        2.06315  -0.00291   0.00000   0.00714   0.00709   2.07023
    A3        1.69713   0.01981   0.00000   0.00533   0.00533   1.70247
    A4        2.52290  -0.01690   0.00000  -0.01246  -0.01243   2.51048
    A5        2.08267   0.00028   0.00000   0.00200   0.00120   2.08387
    A6        2.06025   0.00888   0.00000   0.00931   0.00978   2.07003
    A7        2.14027  -0.00916   0.00000  -0.01131  -0.01098   2.12928
    A8        2.06270   0.00402   0.00000   0.00426   0.00414   2.06685
    A9        2.08095  -0.00328   0.00000  -0.00371  -0.00366   2.07729
   A10        2.13953  -0.00074   0.00000  -0.00055  -0.00049   2.13904
   A11        2.15696   0.00202   0.00000  -0.00251  -0.00254   2.15442
   A12        2.02369  -0.00114   0.00000  -0.00025  -0.00024   2.02346
   A13        2.10254  -0.00088   0.00000   0.00276   0.00277   2.10531
   A14        2.08877   0.00261   0.00000   0.00220   0.00212   2.09088
   A15        2.09343  -0.00090   0.00000  -0.00063  -0.00059   2.09285
   A16        2.10099  -0.00171   0.00000  -0.00157  -0.00153   2.09946
   A17        2.05453   0.00342   0.00000   0.00022   0.00017   2.05470
   A18        2.10544  -0.00237   0.00000  -0.00025  -0.00023   2.10521
   A19        2.12322  -0.00105   0.00000   0.00004   0.00006   2.12327
   A20        3.08392  -0.01801   0.00000  -0.00239  -0.00096   3.08296
   A21        2.27346  -0.02874   0.00000  -0.08038  -0.08049   2.19298
   A22        2.13215   0.00476   0.00000   0.01119   0.01109   2.14325
   A23        1.40441  -0.03412   0.00000   0.00311   0.00151   1.40592
   A24        1.85925   0.02279   0.00000   0.04928   0.04971   1.90896
   A25        1.74895  -0.01569   0.00000   0.07998   0.08096   1.82991
   A26        2.67040   0.00687   0.00000  -0.00145  -0.00033   2.67007
    D1        0.01379  -0.00146   0.00000   0.00007   0.00028   0.01408
    D2       -3.12809  -0.00172   0.00000   0.00033   0.00049  -3.12761
    D3        0.25990  -0.00194   0.00000  -0.00560  -0.00544   0.25446
    D4       -0.02952   0.00450   0.00000  -0.00253  -0.00258  -0.03210
[...]
   A13        2.12643   0.00000   0.00000   0.00009   0.00009   2.12652
   A14        2.10883  -0.00000   0.00000   0.00003   0.00003   2.10886
   A15        2.08710   0.00000   0.00000  -0.00001  -0.00001   2.08710
   A16        2.08725   0.00000   0.00000  -0.00002  -0.00002   2.08723
   A17        2.05386  -0.00000   0.00000   0.00001   0.00001   2.05387
   A18        2.10503   0.00000   0.00000  -0.00001  -0.00001   2.10502
   A19        2.12430   0.00000   0.00000  -0.00000  -0.00000   2.12429
   A20        2.74969  -0.00000   0.00000   0.00008   0.00008   2.74977
   A21        1.87185  -0.00001   0.00000  -0.00027  -0.00027   1.87157
   A22        1.94320  -0.00004   0.00000  -0.00096  -0.00096   1.94224
   A23        1.44876  -0.00002   0.00000  -0.00046  -0.00046   1.44830
   A24        1.99129   0.00001   0.00000   0.00004   0.00004   1.99133
   A25        1.80380  -0.00001   0.00000  -0.00005  -0.00006   1.80375
   A26        2.61330   0.00000   0.00000  -0.00004  -0.00004   2.61325
    D1        0.01189  -0.00001   0.00000  -0.00393  -0.00393   0.00796
    D2       -3.12896  -0.00002   0.00000  -0.00423  -0.00423  -3.13319
    D3        0.07109   0.00003   0.00000   0.00874   0.00874   0.07983
    D4       -0.02062   0.00001   0.00000   0.00406   0.00406  -0.01657
    D5       -3.13609   0.00000   0.00000  -0.00059  -0.00060  -3.13668
    D6        0.00481   0.00001   0.00000  -0.00031  -0.00031   0.00449
    D7        0.00590   0.00001   0.00000   0.00159   0.00159   0.00749
    D8       -3.13639   0.00002   0.00000   0.00187   0.00187  -3.13452
    D9       -0.00336  -0.00001   0.00000   0.00009   0.00009  -0.00327
   D10        3.13680  -0.00001   0.00000  -0.00019  -0.00019   3.13661
   D11        3.13772  -0.00002   0.00000  -0.00277  -0.00277   3.13495
   D12       -0.00531  -0.00002   0.00000  -0.00305  -0.00305  -0.00836
   D13       -0.01660   0.00000   0.00000   0.00101   0.00101  -0.01559
   D14       -0.11835  -0.00000   0.00000   0.00259   0.00259  -0.11576
   D15        3.12545   0.00001   0.00000   0.00354   0.00354   3.12899
   D16        3.02370   0.00001   0.00000   0.00512   0.00512   3.02882
   D17        3.13737   0.00000   0.00000   0.00060   0.00060   3.13797
   D18       -0.00110   0.00000   0.00000   0.00033   0.00033  -0.00077
   D19       -0.00348  -0.00000   0.00000   0.00030   0.00030  -0.00318
   D20        3.14123  -0.00000   0.00000   0.00004   0.00004   3.14127
   D21        0.00076   0.00000   0.00000  -0.00007  -0.00007   0.00068
   D22       -3.13962   0.00000   0.00000  -0.00024  -0.00024  -3.13987
   D23        3.13908   0.00000   0.00000   0.00020   0.00020   3.13929
   D24       -0.00130   0.00000   0.00000   0.00003   0.00003  -0.00126
   D25        0.00045   0.00000   0.00000   0.00015   0.00015   0.00060
   D26        3.14055   0.00000   0.00000  -0.00008  -0.00008   3.14047
   D27       -3.13963   0.00000   0.00000   0.00044   0.00044  -3.13918
   D28        0.00047   0.00000   0.00000   0.00022   0.00022   0.00069
   D29        0.00079  -0.00000   0.00000  -0.00015  -0.00015   0.00064
   D30       -3.13929   0.00000   0.00000   0.00008   0.00008  -3.13921
   D31        3.14117  -0.00000   0.00000   0.00002   0.00002   3.14119
   D32        0.00109   0.00000   0.00000   0.00025   0.00025   0.00134
   D33       -2.08911  -0.00002   0.00000  -0.00561  -0.00561  -2.09472
   D34       -0.11375  -0.00002   0.00000  -0.00577  -0.00577  -0.11952
   D35        0.02514  -0.00001   0.00000  -0.00336  -0.00336   0.02177
   D36        1.60232  -0.00004   0.00000  -0.00096  -0.00096   1.60135
   D37        0.13648   0.00000   0.00000  -0.00211  -0.00211   0.13437
   D38        2.06135  -0.00005   0.00000  -0.00336  -0.00336   2.05799
         Item               Value     Threshold  Converged?
 Maximum Force            0.000072     0.000450     YES
 RMS     Force            0.000018     0.000300     YES
 Maximum Displacement     0.005384     0.001800     NO 
 RMS     Displacement     0.001377     0.001200     NO 
 Predicted change in Energy=-7.116900D-07
 GradGradGradGradGradGradGradGradGradGradGradGradGradGradGradGradGradGrad

 Leave Link  103 at Sat Aug 28 01:27:24 2021, MaxMem= 17179869184 cpu:        63.9
 (Enter /public3/home/sc51754/softwares/g09e01/l9999.exe)
 1\1\GINC-N1509\Freq\RM06\Gen\C5H7N1O2\SC51754\28-Aug-2021\0\\#P Geom=A
 llCheck Guess=TCheck SCRF=Check GenChk RM06/ChkBas Freq\\HY_H2O_M06_PC
 2_OPT_FREQ\\0,1\O,1.3409533379,1.4555361359,0.0070766298\N,0.442140910
 6,-0.6227240278,-0.0081371415\C,0.2933018444,0.7294872345,0.0035853976
 \C,-1.0176246092,1.2581483719,0.0104104119\C,-0.6121564402,-1.44658506
 45,-0.0186998311\C,-2.0843160659,0.4073929599,0.0009715541\C,-1.895320
 3362,-0.9813861349,-0.0144650919\H,2.2941384016,0.6569901873,-0.016262
 7279\H,-1.1328777709,2.3318707984,0.0200592515\H,-0.3887179749,-2.5061
 381865,-0.0322250707\H,-3.0893966779,0.8102258661,0.0043213461\H,-2.72
 83872208,-1.667132631,-0.0241877331\O,2.8390048557,-0.3835660404,-0.07
 21268764\H,3.3625344133,-0.5444896707,0.7111749468\H,1.6741620327,-0.8
 254471381,-0.0058047551\\Version=EM64L-G09RevE.01\State=1-A\HF=-399.85
 79063\RMSD=6.748e-09\RMSF=6.095e-05\ZeroPoint=0.1135013\Thermal=0.1200
 469\Dipole=-0.7986276,-0.7731298,0.5269233\DipoleDeriv=-1.9263984,-0.4
 187674,-0.0182436,-0.2672202,-0.8973223,-0.0013539,-0.0100196,-0.00578
 ,-0.3646694,-1.3446361,0.1702256,-0.0082858,-0.5413445,-0.5312694,-0.0
 045095,-0.0333553,-0.0010967,-0.1924703,1.7059024,0.8191588,0.0126727,
 0.7440279,0.7372427,0.0054714,-0.0007606,0.0002032,0.2379409,-0.651013
 7,-0.49319,-0.0073989,0.0859184,-0.0077616,0.0007665,0.007723,0.000242
 5,-0.1793072,0.6605742,-0.3097782,-0.0007255,0.3302632,0.2390506,0.010
 3462,0.0035638,0.0055625,0.0083632,0.2701316,0.1091422,0.0017589,0.085
 7956,0.5753738,0.0072696,0.0003368,0.006258,-0.0590285,-0.2968944,0.36
 08332,0.0029174,0.0432891,-0.4588201,-0.0031473,0.0054162,-0.0017001,-
 0.1887698,1.1331343,-0.3731408,-0.0027204,-0.9076724,0.6555019,-0.0323
 651,-0.023668,-0.0187505,0.2105119,0.0603563,-0.0010201,-0.0003084,0.0
 131244,-0.0353057,-0.0017472,0.0004905,-0.0013225,0.1425895,0.0596265,
 0.0296317,-0.0003646,-0.0137477,-0.0678201,-0.0022899,-0.0026444,-0.00
 24019,0.1151996,-0.0538735,0.0563029,0.0002275,0.0559352,0.0648911,-0.
 0005313,-0.0009049,-0.0002654,0.1131042,-0.0084122,-0.0601581,-0.00136
 82,-0.0571335,0.0094392,-0.0016435,-0.0011263,-0.0017719,0.151538,-1.7
 758637,0.1895092,0.0089732,0.3101263,-0.7360084,0.0036684,0.0634389,-0
 .0126676,-0.3779477,0.3126177,-0.0046354,-0.0116769,-0.0251281,0.27415
 43,0.000418,-0.0226287,0.0121838,0.1947587,1.8547491,-0.0741138,0.0245
 426,0.1437664,0.1786539,0.0196476,0.0141385,0.0213066,0.1881868\Polar=
 102.0947939,4.2324086,83.9852653,1.4169375,0.0854132,43.5686436\PG=C01
  [X(C5H7N1O2)]\NImag=1\\0.46033431,0.17564787,0.35699719,0.00000245,0.
 00144666,0.05340842,0.03215139,-0.05714758,0.00001317,0.60923383,-0.04
 009962,-0.06698782,-0.00071129,0.12299495,0.62702131,0.00098950,-0.000
 83729,0.01463400,0.00207499,0.00553325,0.10068746,-0.34696527,-0.16120
 763,-0.00028523,-0.18060853,0.01890100,-0.00121392,0.81758397,-0.15537
 829,-0.21927469,-0.00036887,0.04694106,-0.24542269,-0.00209199,0.06200
 031,0.64708909,-0.00107620,-0.00115267,-0.07027164,0.00023500,-0.00158
 461,-0.07337961,-0.00000485,0.00409735,0.20464244,-0.07892463,-0.00034
 239,0.00008688,0.03036052,0.06660656,0.00106435,-0.23486920,0.04767197
 ,0.00062619,0.67830597,-0.03396725,0.02007805,0.00014594,0.03815060,-0
 .02314543,-0.00035822,0.09343816,-0.15343556,-0.00098561,0.04886901,0.
 77254822,-0.00000382,0.00055028,0.01531776,0.00008243,-0.00029361,0.01
 360569,0.00128027,-0.00133648,-0.07802781,0.00017419,0.00644057,0.1184
 2911,-0.01558307,0.01256622,-0.00005988,-0.26422943,-0.08949532,-0.000
 81369,0.05880108,-0.07767580,-0.00074808,-0.06515978,-0.00554491,-0.00
 008881,0.71455143,-0.00304113,0.00095604,-0.00014944,-0.11823190,-0.21
 350287,-0.00165616,-0.01699486,-0.05976972,-0.00052809,-0.01224396,-0.
 00125412,0.00003825,-0.04725917,0.75332018,-0.00013893,0.00000771,0.00
 807750,-0.00158641,-0.00192695,-0.05528561,-0.00011368,-0.00058125,-0.
 00271970,-0.00022170,0.00008757,-0.00303101,0.00023155,0.00724138,0.14
 967375,0.00426449,0.00466297,0.00006283,-0.00856273,-0.01534290,-0.000
 32790,-0.05113713,-0.00588732,-0.00002027,-0.30085000,-0.16191145,-0.0
 0177869,0.01456409,0.03808281,0.00048659,0.75755142,0.02525950,-0.0048
 9658,-0.00000506,-0.03906354,-0.05560636,-0.00072564,-0.04818907,0.064
 23680,0.00071775,-0.10489071,-0.23721927,-0.00182638,0.08887357,-0.010
 64307,-0.00014114,0.00678921,0.66855229,0.00025920,-0.00009971,0.00469
 652,-0.00034441,-0.00054620,-0.00678433,-0.00052501,0.00069920,0.00060
 194,-0.00127700,-0.00197525,-0.05626601,0.00096432,-0.00016243,0.00775
 854,0.00053326,0.00570697,0.14355410,0.00811112,-0.00678911,0.00000974
 ,-0.07839653,-0.05193804,-0.00079100,-0.03171783,0.04542835,0.00043327
 ,0.04668976,-0.02207717,-0.00021686,-0.34382336,0.11853311,0.00095171,
 -0.12732146,-0.00715851,-0.00018630,0.75311083,-0.01771627,0.00018096,
 -0.00005687,0.00312625,0.05128535,0.00061658,0.03680978,-0.03384419,-0
 .00034551,-0.05857049,-0.03853412,-0.00051719,0.05623314,-0.16106473,-
 0.00114665,0.05502971,-0.30402442,-0.00267495,0.04219776,0.67187075,-0
 .00020467,0.00008624,-0.00076050,-0.00022539,0.00033887,0.01688559,0.0
 0043639,-0.00034218,-0.00825349,-0.00059681,-0.00057579,0.00739456,0.0
 0012930,-0.00094730,-0.06504981,0.00052553,-0.00283440,-0.06151170,0.0
 0149602,0.00661671,0.11638403,0.00957694,-0.00974160,-0.00210715,-0.01
 718457,0.01456601,-0.00100160,-0.06036248,-0.02588916,0.00015528,0.012
 10712,0.00265566,0.00023527,0.00249516,0.00290457,0.00001530,-0.001933
 68,-0.00604342,-0.00006075,-0.00182075,0.00465387,0.00015398,0.0637017
 9,-0.04082125,-0.04381220,0.00118151,0.01888126,-0.01296993,0.00119735
 ,0.02429565,0.04903665,0.00039271,-0.01714448,-0.00666544,-0.00025029,
 -0.00477144,-0.00548136,-0.00012925,0.00174252,0.00914586,0.00006912,0
 .00404192,-0.00613826,-0.00014950,0.04411441,0.08106605,0.00060193,-0.
 00107871,-0.03323593,-0.00097504,-0.00017814,-0.00165208,-0.00036899,0
 .00010335,0.00153828,0.00002416,-0.00010196,0.00335504,0.00000907,0.00
 010102,-0.00069680,-0.00007449,-0.00007028,0.00070358,-0.00010494,0.00
 002490,0.00033731,0.00750704,0.00546975,0.07010421,0.00275747,-0.00227
 569,-0.00003596,-0.00642129,0.00460069,0.00001567,0.00346443,0.0288803
 9,0.00024952,-0.06060655,0.03346255,0.00036153,-0.00231794,-0.00127545
 ,-0.00001386,0.00761561,-0.02556743,-0.00023353,-0.00322256,-0.0028183
 6,-0.00003325,-0.00077835,0.00091316,-0.00001156,0.05670393,-0.0002513
 8,0.00138899,0.00004410,0.00273054,-0.00028214,-0.00003619,-0.00336476
 ,-0.00918173,-0.00008519,0.03529704,-0.34140126,-0.00281351,0.00057597
 ,0.00096418,0.00001527,0.00390683,-0.01293295,-0.00013274,-0.00346004,
 0.00092781,-0.00006362,0.00033990,-0.00034624,0.00000721,-0.03538658,0
 .36060546,0.00000128,0.00000716,-0.00246759,0.00003175,-0.00008484,0.0
 0515896,-0.00005384,-0.00008702,0.00262949,0.00037633,-0.00267878,-0.0
 3327692,0.00003977,0.00003034,-0.00058940,0.00001712,-0.00022450,0.002
 15622,-0.00006528,-0.00008343,0.00897228,-0.00002072,0.00001827,-0.000
 28091,-0.00033031,0.00304567,0.02388984,-0.00084699,-0.00156504,-0.000
 00629,0.00539215,-0.03261523,-0.00038385,-0.00288284,-0.00127367,-0.00
 002771,-0.00039060,-0.00076770,-0.00000435,-0.07266559,0.06576371,0.00
 077517,-0.00573584,0.00139627,-0.00000316,0.00112913,0.02780795,0.0003
 4500,0.00073438,-0.00071023,0.00000492,0.00015303,0.00000971,-0.000000
 54,0.07400162,-0.00061271,-0.00162336,0.00000574,-0.00357693,-0.022470
 55,-0.00029937,-0.00254873,0.00364170,-0.00012502,0.00024105,0.0003820
 4,0.00001233,0.06307967,-0.31971138,-0.00352448,0.00215909,0.00063014,
 -0.00009182,-0.00052117,-0.00533998,-0.00016492,0.00046970,-0.00034993
 ,-0.00000800,0.00010033,-0.00009037,0.00001743,-0.05934944,0.34471741,
 0.00001090,-0.00004418,-0.00004252,0.00009223,-0.00018440,0.00009090,-
 0.00003218,-0.00003539,0.00799179,0.00001538,0.00001568,-0.00041693,0.
 00069704,-0.00374760,-0.04091644,-0.00001992,-0.00006946,0.00774284,0.
 00002688,-0.00008908,0.00725157,-0.00005027,0.00004068,-0.00011831,-0.
 00000269,0.00001269,-0.00143338,-0.00067510,0.00408230,0.02602758,-0.0
 0199833,0.00052457,0.00001749,0.00024494,-0.00072053,-0.00000192,-0.00
 077006,-0.00357182,-0.00005863,-0.01843924,0.01109048,0.00008581,0.001
 78319,0.00081708,-0.00000115,-0.29871910,0.09623196,0.00076857,-0.0001
 1894,-0.00023882,-0.00001737,0.00040946,-0.00065230,-0.00001454,0.0011
 4060,-0.00002597,0.00000342,-0.00010288,-0.00010433,0.00000029,0.31630
 114,-0.00091328,0.00063197,0.00002745,-0.00101801,-0.00022119,0.000012
 48,-0.00335377,-0.00228625,-0.00014300,-0.01850864,0.01132071,0.000025
 67,0.00043795,-0.00624653,-0.00013742,0.09691795,-0.09717943,-0.000519
 28,0.02901982,-0.00541957,-0.00008359,0.00005136,-0.00026553,-0.000001
 10,0.00061018,0.00073837,0.00006403,0.00147650,-0.00038232,0.00000767,
 -0.10401618,0.09796622,-0.00002510,-0.00003641,-0.00135025,0.00001840,
 0.00001174,-0.00200181,-0.00003211,-0.00010934,0.01120324,-0.00017700,
 0.00011230,0.00633399,0.00001531,-0.00015819,0.00619084,0.00070673,-0.
 00053079,-0.04242027,0.00030958,-0.00010587,0.00511071,-0.00003213,0.0
 0002763,-0.00041608,0.00000375,0.00004589,-0.00525457,0.00001496,0.000
 00221,-0.00054462,-0.00080856,0.00069394,0.02640243,0.00053786,-0.0002
 8087,0.00000632,-0.00542742,0.00307843,0.00002122,-0.00049395,0.001419
 09,0.00000288,0.00095185,0.00175258,0.00000613,-0.01624414,-0.02177326
 ,-0.00031694,0.00828142,0.00533964,0.00007111,-0.22875299,-0.14029214,
 -0.00200256,-0.00021432,0.00048106,-0.00001940,0.00027430,0.00035056,0
 .00000096,0.00084011,0.00010277,0.00001107,0.00043003,-0.00062318,0.00
 000343,0.23929247,-0.00045041,0.00044560,0.00001086,0.00363797,0.00067
 247,-0.00009494,0.00138868,-0.00130180,-0.00000221,0.00238939,-0.00445
 475,-0.00011182,0.00960904,0.01025103,0.00016187,-0.02475377,-0.013346
 46,-0.00020628,-0.14182841,-0.17200360,-0.00196520,0.00019239,-0.00030
 254,0.00000480,-0.00114476,-0.00052842,-0.00001122,-0.00059975,0.00040
 072,0.00005131,0.00027290,0.00115679,0.00004935,0.15140265,0.17851469,
 -0.00000278,-0.00001908,-0.00085507,-0.00000357,-0.00010153,0.00828217
 ,0.00000869,0.00001490,-0.00032045,0.00002369,-0.00010118,0.00526817,0
 .00010776,0.00011310,-0.00093722,-0.00026117,-0.00011183,0.00021800,-0
 .00207039,-0.00202539,-0.02969248,0.00001244,-0.00001084,0.00000782,-0
 .00001655,-0.00001009,0.00057631,0.00000048,0.00005930,-0.00409332,0.0
 0000866,0.00004735,-0.00296085,0.00219223,0.00212427,0.02381344,-0.027
 02179,0.04312969,0.00128513,-0.08873506,-0.01370526,-0.00217719,-0.001
 04503,-0.00431029,0.00042726,0.00004820,0.00113346,0.00017048,-0.00086
 699,0.01530300,0.00005380,-0.00057568,-0.00189317,-0.00006828,-0.00570
 539,-0.00135907,0.00019270,-0.04083812,0.02152004,-0.00169184,-0.00053
 037,0.00039326,0.00000506,-0.00023807,-0.00125712,-0.00011603,-0.00030
 280,0.00002036,-0.00002459,-0.00134964,0.00035476,0.00003274,0.3394794
 2,0.09426901,-0.04044097,0.00242845,-0.03248474,0.02021863,-0.00363881
 ,-0.03247475,-0.03631920,-0.00012297,0.01163386,0.00607876,-0.00019117
 ,0.00474254,0.00591784,-0.00005028,-0.00122376,-0.00670665,-0.00010124
 ,-0.00371797,0.00425120,0.00027231,-0.02434643,-0.04720728,-0.02692799
 ,-0.00118082,0.00049774,-0.00002126,0.00059894,-0.00004477,-0.00008767
 ,0.00038687,0.00019549,0.00004630,-0.00048712,0.00028998,0.00006125,-0
 .09135546,0.17322006,-0.00279079,0.00405914,0.01634734,-0.00611164,-0.
 00092195,0.01590346,0.00083231,-0.00051992,-0.00065514,-0.00005853,0.0
 0006550,-0.00186579,-0.00041527,0.00039102,0.00096782,0.00005388,-0.00
 006040,0.00010888,-0.00011174,-0.00013016,-0.00114339,-0.00563805,-0.0
 0816991,-0.04458353,0.00002393,-0.00000416,0.00014185,0.00000186,-0.00
 008913,0.00050545,0.00000884,0.00000857,0.00024929,-0.00007179,-0.0000
 0011,-0.00023159,0.23855818,-0.07017118,0.42498229,0.00132611,0.001706
 52,0.00181707,-0.00582837,-0.00200139,0.00373248,-0.00078321,-0.001047
 59,-0.00065650,0.00024096,0.00014270,-0.00045769,-0.00088196,0.0007182
 7,0.00011975,0.00001451,-0.00015740,0.00004470,-0.00013381,-0.00021686
 ,-0.00030042,-0.00564784,-0.00133700,-0.00714330,0.00001355,0.00002222
 ,0.00000717,-0.00005015,-0.00010713,0.00012843,0.00002299,-0.00000039,
 0.00006641,-0.00007328,0.00003033,-0.00004048,-0.17203859,0.04601308,-
 0.22887826,0.18269552,0.00617698,-0.00595480,-0.00395836,-0.00604798,0
 .00039176,0.00204733,-0.00132809,-0.00178898,-0.00006352,0.00036639,0.
 00021801,0.00031640,0.00001816,0.00104903,0.00003553,-0.00001373,-0.00
 019906,0.00001897,-0.00038722,-0.00007483,-0.00009560,0.00506416,0.008
 41030,0.02153178,-0.00006479,0.00003687,0.00000547,-0.00005553,-0.0001
 4163,0.00000464,0.00001320,0.00000260,-0.00005210,-0.00009625,0.000025
 18,-0.00002516,0.04203473,-0.04546033,0.06719269,-0.05134899,0.0408907
 1,0.00363427,-0.00332318,-0.00015239,0.00531503,0.00044240,-0.00018701
 ,-0.00053222,-0.00015821,0.00002650,0.00011483,0.00001056,-0.00002073,
 0.00023919,-0.00050423,0.00001874,0.00003395,0.00003201,-0.00000837,0.
 00024418,0.00010960,0.00000437,-0.00050179,0.00233981,0.00024248,0.000
 01419,-0.00000615,0.00001008,-0.00001599,0.00007537,0.00002428,0.00001
 465,-0.00000446,0.00000964,0.00008033,-0.00000254,0.00000701,-0.250686
 33,0.07990340,-0.37204561,0.24647972,-0.07677016,0.37103529,-0.0477196
 4,0.00111206,-0.00080655,-0.02198889,0.01517065,-0.00118717,0.03178606
 ,0.04269277,0.00046283,-0.00946440,-0.00642673,0.00015411,-0.01042269,
 -0.02130281,-0.00024120,0.00254409,0.00907311,0.00005730,0.01197278,-0
 .00464645,0.00010153,0.03975525,-0.05055333,0.00225697,0.00175414,-0.0
 0113730,-0.00001217,0.00066254,0.00192496,-0.00008605,0.00011899,-0.00
 010066,-0.00003907,0.00194770,-0.00050101,0.00000823,-0.00028010,0.029
 62677,0.00459708,0.00112357,0.00566896,-0.00443399,-0.00178941,-0.0081
 0177,0.00231162,-0.00004080,0.02110808,-0.05898054,0.00033164,0.032628
 07,-0.00137943,-0.00006939,-0.00137460,-0.00451582,-0.00004304,-0.0113
 8962,0.00521548,0.00008810,-0.00015815,0.00018918,0.00001564,-0.001343
 31,-0.00207237,-0.00009203,-0.00899142,-0.02412015,0.00112336,0.001146
 59,-0.00039630,0.00000267,-0.00011649,0.00038229,0.00004281,-0.0000071
 4,-0.00001133,0.00000334,-0.00037395,0.00018111,-0.00001506,-0.0100089
 4,-0.03449049,0.00835000,0.00758363,0.00259517,-0.00214421,-0.02060098
 ,0.11509159,-0.00125724,0.00043405,-0.00334565,0.00138345,0.00020726,-
 0.03595778,0.00060438,0.00071587,0.00499416,-0.00017494,-0.00010132,0.
 00320086,-0.00030759,-0.00006168,-0.00346120,0.00006256,0.00014314,-0.
 00054994,0.00007513,-0.00019268,0.00407095,0.00133315,-0.00202705,0.00
 469492,0.00000911,-0.00001918,-0.00023226,-0.00002540,0.00004807,-0.00
 206890,-0.00000557,0.00000170,-0.00055169,0.00001500,-0.00000814,0.000
 91806,0.01403890,0.01860085,-0.03868131,-0.01491907,-0.01018789,0.0010
 3573,-0.00083187,-0.00755301,0.06593405\\-0.00006100,0.00008006,0.0001
 3218,0.00006897,-0.00000425,0.00000594,-0.00003437,0.00000013,0.000006
 70,-0.00001677,-0.00001162,-0.00002213,0.00002295,-0.00001100,-0.00001
 805,-0.00000740,-0.00003379,0.00000624,0.00001263,-0.00002405,-0.00002
 151,0.00006290,-0.00010592,-0.00022689,-0.00003705,-0.00001588,-0.0000
 0113,0.00003563,-0.00000469,0.00001742,-0.00001337,-0.00004514,-0.0000
 0129,0.00002331,-0.00003984,-0.00000059,-0.00010190,0.00016158,0.00011
 429,0.00001794,-0.00000346,-0.00001734,0.00002753,0.00005787,0.0000261
 6\\\@


 A great many people think they are thinking when they
 are merely rearranging their prejudices.
                               -- William James
 Job cpu time:       0 days  1 hours 23 minutes  7.6 seconds.
 File lengths (MBytes):  RWF=    137 Int=      0 D2E=      0 Chk=      9 Scr=      1
 Normal termination of Gaussian 09 at Sat Aug 28 01:27:24 2021.
