 Entering Gaussian System, Link 0=g09
 Initial command:
 /gpfs/share/home/1801110325/software/g09e01/l1.exe "./Gau-16574.inp" -scrdir="./"
 Entering Link 1 = /gpfs/share/home/1801110325/software/g09e01/l1.exe PID=     16576.
  
 Copyright (c) 1988,1990,1992,1993,1995,1998,2003,2009,2015,
            Gaussian, Inc.  All Rights Reserved.
  
 This is part of the Gaussian(R) 09 program.  It is based on
 the Gaussian(R) 03 system (copyright 2003, Gaussian, Inc.),
 the Gaussian(R) 98 system (copyright 1998, Gaussian, Inc.),
 the Gaussian(R) 94 system (copyright 1995, Gaussian, Inc.),
 the Gaussian 92(TM) system (copyright 1992, Gaussian, Inc.),
 the Gaussian 90(TM) system (copyright 1990, Gaussian, Inc.),
 the Gaussian 88(TM) system (copyright 1988, Gaussian, Inc.),
 the Gaussian 86(TM) system (copyright 1986, Carnegie Mellon
 University), and the Gaussian 82(TM) system (copyright 1983,
 Carnegie Mellon University). Gaussian is a federally registered
 trademark of Gaussian, Inc.
  
 This software contains proprietary and confidential information,
 including trade secrets, belonging to Gaussian, Inc.
  
 This software is provided under written license and may be
 used, copied, transmitted, or stored only in accord with that
 written license.
  
 The following legend is applicable only to US Government
 contracts under FAR:
  
                    RESTRICTED RIGHTS LEGEND
  
 Use, reproduction and disclosure by the US Government is
 subject to restrictions as set forth in subparagraphs (a)
 and (c) of the Commercial Computer Software - Restricted
 Rights clause in FAR 52.227-19.
  
 Gaussian, Inc.
 340 Quinnipiac St., Bldg. 40, Wallingford CT 06492
  
  
 ---------------------------------------------------------------
 Warning -- This program may not be used in any manner that
 competes with the business of Gaussian, Inc. or will provide
 assistance to any competitor of Gaussian, Inc.  The licensee
 of this program is prohibited from giving any competitor of
 Gaussian, Inc. access to this program.  By using this program,
 the user acknowledges that Gaussian, Inc. is engaged in the
 business of creating and licensing software in the field of
 computational chemistry and represents and warrants to the
 licensee that it is not a competitor of Gaussian, Inc. and that
 it will not use this program in any manner prohibited above.
 ---------------------------------------------------------------
  

 Cite this work as:
 Gaussian 09, Revision E.01,
 M. J. Frisch, G. W. Trucks, H. B. Schlegel, G. E. Scuseria, 
 M. A. Robb, J. R. Cheeseman, G. Scalmani, V. Barone, B. Mennucci, 
 G. A. Petersson, H. Nakatsuji, M. Caricato, X. Li, H. P. Hratchian, 
 A. F. Izmaylov, J. Bloino, G. Zheng, J. L. Sonnenberg, M. Hada, 
 M. Ehara, K. Toyota, R. Fukuda, J. Hasegawa, M. Ishida, T. Nakajima, 
 Y. Honda, O. Kitao, H. Nakai, T. Vreven, J. A. Montgomery, Jr., 
 J. E. Peralta, F. Ogliaro, M. Bearpark, J. J. Heyd, E. Brothers, 
 K. N. Kudin, V. N. Staroverov, T. Keith, R. Kobayashi, J. Normand, 
 K. Raghavachari, A. Rendell, J. C. Burant, S. S. Iyengar, J. Tomasi, 
 M. Cossi, N. Rega, J. M. Millam, M. Klene, J. E. Knox, J. B. Cross, 
 V. Bakken, C. Adamo, J. Jaramillo, R. Gomperts, R. E. Stratmann, 
 O. Yazyev, A. J. Austin, R. Cammi, C. Pomelli, J. W. Ochterski, 
 R. L. Martin, K. Morokuma, V. G. Zakrzewski, G. A. Voth, 
 P. Salvador, J. J. Dannenberg, S. Dapprich, A. D. Daniels, 
 O. Farkas, J. B. Foresman, J. V. Ortiz, J. Cioslowski, 
 and D. J. Fox, Gaussian, Inc., Wallingford CT, 2013.
 
 ******************************************
 Gaussian 09:  EM64L-G09RevE.01 30-Nov-2015
                 3-Sep-2021 
 ******************************************
 %nprocshared=6
 Will use up to    6 processors via shared memory.
 %mem=18GB
 %oldchk=PY_TPSSh_PC2_OPT_FREQ.chk
 %chk=PY_G3.chk
 Copying data from "PY_TPSSh_PC2_OPT_FREQ.chk" to current chk file "PY_G3.chk".
 ---------------------
 #p G3 geom=checkpoint
 ---------------------
 1/18=20,19=15,29=2,38=1/1,3;
 2/9=110,12=2,40=1/2;
 3/5=33,7=1,11=9,14=-4,16=1,25=1,30=1,71=1/1,2,3;
 4//1;
 5/5=2,38=5/2;
 6/7=2,8=2,9=2,10=2,28=1/1;
 7//1,2,3,16;
 1/18=20,19=15/3(2);
 2/9=110/2;
 99//99;
 2/9=110/2;
 3/5=33,7=1,11=9,14=-2,16=1,25=1,30=1,71=1/1,2,3;
 4/5=5,16=3,69=1/1;
 5/5=2,38=5/2;
 7//1,2,3,16;
 1/18=20,19=15/3(-5);
 2/9=110/2;
 6/7=2,8=2,9=2,10=2,19=2,28=1/1;
 99/9=1/99;
 Leave Link    1 at Fri Sep  3 00:21:34 2021, MaxMem=  2415919104 cpu:         3.2
 (Enter /gpfs/share/home/1801110325/software/g09e01/l101.exe)
 -----
 PY_G3
 -----
 Structure from the checkpoint file:  "PY_G3.chk"
 Charge =  0 Multiplicity = 1
 Redundant internal coordinates found in file.
 O,0,-0.134766664,2.2849476993,0.
 N,0,-1.1355842261,0.2341275569,0.
 C,0,0.0021983527,1.0674596883,0.
 C,0,1.2426540156,0.324994805,0.
 C,0,-1.1201173631,-1.1250537155,0.
 C,0,1.2613521451,-1.0375734557,0.
 C,0,0.061212826,-1.7984044295,0.
 H,0,-2.015942597,0.7309079242,0.
 H,0,2.1517380101,0.9096886136,0.
 H,0,-2.0854292863,-1.6123049255,0.
 H,0,2.2125097972,-1.5575218921,0.
 H,0,0.07427799,-2.8776598692,0.
 Recover connectivity data from disk.
 NAtoms=     12 NQM=       12 NQMF=       0 NMMI=      0 NMMIF=      0
                NMic=       0 NMicF=      0.
                    Isotopes and Nuclear Properties:
 (Nuclear quadrupole moments (NQMom) in fm**2, nuclear magnetic moments (NMagM)
  in nuclear magnetons)

  Atom         1           2           3           4           5           6           7           8           9          10
 IAtWgt=          16          14          12          12          12          12          12           1           1           1
 AtmWgt=  15.9949146  14.0030740  12.0000000  12.0000000  12.0000000  12.0000000  12.0000000   1.0078250   1.0078250   1.0078250
 NucSpn=           0           2           0           0           0           0           0           1           1           1
 AtZEff=  -5.6000000  -4.5500000  -3.6000000  -3.6000000  -3.6000000  -3.6000000  -3.6000000  -1.0000000  -1.0000000  -1.0000000
 NQMom=    0.0000000   2.0440000   0.0000000   0.0000000   0.0000000   0.0000000   0.0000000   0.0000000   0.0000000   0.0000000
 NMagM=    0.0000000   0.4037610   0.0000000   0.0000000   0.0000000   0.0000000   0.0000000   2.7928460   2.7928460   2.7928460
 AtZNuc=   8.0000000   7.0000000   6.0000000   6.0000000   6.0000000   6.0000000   6.0000000   1.0000000   1.0000000   1.0000000

  Atom        11          12
 IAtWgt=           1           1
 AtmWgt=   1.0078250   1.0078250
 NucSpn=           1           1
 AtZEff=  -1.0000000  -1.0000000
 NQMom=    0.0000000   0.0000000
 NMagM=    2.7928460   2.7928460
 AtZNuc=   1.0000000   1.0000000
 Leave Link  101 at Fri Sep  3 00:21:35 2021, MaxMem=  2415919104 cpu:         2.4
 (Enter /gpfs/share/home/1801110325/software/g09e01/l103.exe)

 GradGradGradGradGradGradGradGradGradGradGradGradGradGradGradGradGradGrad
 Berny optimization.
 Initialization pass.
                           ----------------------------
                           !    Initial Parameters    !
                           ! (Angstroms and Degrees)  !
 --------------------------                            --------------------------
 ! Name  Definition              Value          Derivative Info.                !
 --------------------------------------------------------------------------------
 ! R1    R(1,3)                  1.2252         estimate D2E/DX2                !
 ! R2    R(2,3)                  1.4103         estimate D2E/DX2                !
 ! R3    R(2,5)                  1.3593         estimate D2E/DX2                !
 ! R4    R(2,8)                  1.0109         estimate D2E/DX2                !
 ! R5    R(3,4)                  1.4457         estimate D2E/DX2                !
 ! R6    R(4,6)                  1.3627         estimate D2E/DX2                !
 ! R7    R(4,9)                  1.0809         estimate D2E/DX2                !
 ! R8    R(5,7)                  1.3598         estimate D2E/DX2                !
 ! R9    R(5,10)                 1.0813         estimate D2E/DX2                !
 ! R10   R(6,7)                  1.421          estimate D2E/DX2                !
 ! R11   R(6,11)                 1.084          estimate D2E/DX2                !
 ! R12   R(7,12)                 1.0793         estimate D2E/DX2                !
 ! A1    A(3,2,5)              125.5677         estimate D2E/DX2                !
 ! A2    A(3,2,8)              114.3445         estimate D2E/DX2                !
 ! A3    A(5,2,8)              120.0877         estimate D2E/DX2                !
 ! A4    A(1,3,2)              119.801          estimate D2E/DX2                !
 ! A5    A(1,3,4)              127.321          estimate D2E/DX2                !
 ! A6    A(2,3,4)              112.878          estimate D2E/DX2                !
 ! A7    A(3,4,6)              121.6885         estimate D2E/DX2                !
 ! A8    A(3,4,9)              116.3499         estimate D2E/DX2                !
 ! A9    A(6,4,9)              121.9616         estimate D2E/DX2                !
 ! A10   A(2,5,7)              120.3348         estimate D2E/DX2                !
 ! A11   A(2,5,10)             116.1309         estimate D2E/DX2                !
 ! A12   A(7,5,10)             123.5343         estimate D2E/DX2                !
 ! A13   A(4,6,7)              121.5865         estimate D2E/DX2                !
 ! A14   A(4,6,11)             119.4493         estimate D2E/DX2                !
 ! A15   A(7,6,11)             118.9641         estimate D2E/DX2                !
 ! A16   A(5,7,6)              117.9444         estimate D2E/DX2                !
 ! A17   A(5,7,12)             120.3764         estimate D2E/DX2                !
 ! A18   A(6,7,12)             121.6792         estimate D2E/DX2                !
 ! D1    D(5,2,3,1)            180.0            estimate D2E/DX2                !
 ! D2    D(5,2,3,4)              0.0            estimate D2E/DX2                !
 ! D3    D(8,2,3,1)              0.0            estimate D2E/DX2                !
 ! D4    D(8,2,3,4)            180.0            estimate D2E/DX2                !
 ! D5    D(3,2,5,7)              0.0            estimate D2E/DX2                !
 ! D6    D(3,2,5,10)           180.0            estimate D2E/DX2                !
 ! D7    D(8,2,5,7)            180.0            estimate D2E/DX2                !
 ! D8    D(8,2,5,10)             0.0            estimate D2E/DX2                !
 ! D9    D(1,3,4,6)            180.0            estimate D2E/DX2                !
 ! D10   D(1,3,4,9)              0.0            estimate D2E/DX2                !
 ! D11   D(2,3,4,6)              0.0            estimate D2E/DX2                !
 ! D12   D(2,3,4,9)            180.0            estimate D2E/DX2                !
 ! D13   D(3,4,6,7)              0.0            estimate D2E/DX2                !
 ! D14   D(3,4,6,11)           180.0            estimate D2E/DX2                !
 ! D15   D(9,4,6,7)            180.0            estimate D2E/DX2                !
 ! D16   D(9,4,6,11)             0.0            estimate D2E/DX2                !
 ! D17   D(2,5,7,6)              0.0            estimate D2E/DX2                !
 ! D18   D(2,5,7,12)           180.0            estimate D2E/DX2                !
 ! D19   D(10,5,7,6)           180.0            estimate D2E/DX2                !
 ! D20   D(10,5,7,12)            0.0            estimate D2E/DX2                !
 ! D21   D(4,6,7,5)              0.0            estimate D2E/DX2                !
 ! D22   D(4,6,7,12)           180.0            estimate D2E/DX2                !
 ! D23   D(11,6,7,5)           180.0            estimate D2E/DX2                !
 ! D24   D(11,6,7,12)            0.0            estimate D2E/DX2                !
 --------------------------------------------------------------------------------
 Trust Radius=3.00D-01 FncErr=1.00D-07 GrdErr=1.00D-07
 Number of steps in this run=     64 maximum allowed number of steps=    100.
 GradGradGradGradGradGradGradGradGradGradGradGradGradGradGradGradGradGrad

 Leave Link  103 at Fri Sep  3 00:21:35 2021, MaxMem=  2415919104 cpu:         0.4
 (Enter /gpfs/share/home/1801110325/software/g09e01/l202.exe)
                          Input orientation:                          
 ---------------------------------------------------------------------
 Center     Atomic      Atomic             Coordinates (Angstroms)
 Number     Number       Type             X           Y           Z
 ---------------------------------------------------------------------
      1          8           0       -0.134767    2.284948   -0.000000
      2          7           0       -1.135584    0.234128   -0.000000
      3          6           0        0.002198    1.067460   -0.000000
      4          6           0        1.242654    0.324995    0.000000
      5          6           0       -1.120117   -1.125054   -0.000000
      6          6           0        1.261352   -1.037573    0.000000
      7          6           0        0.061213   -1.798404    0.000000
      8          1           0       -2.015943    0.730908   -0.000000
      9          1           0        2.151738    0.909689    0.000000
     10          1           0       -2.085429   -1.612305   -0.000000
     11          1           0        2.212510   -1.557522    0.000000
     12          1           0        0.074278   -2.877660    0.000000
 ---------------------------------------------------------------------
                    Distance matrix (angstroms):
                    1          2          3          4          5
     1  O    0.000000
     2  N    2.281995   0.000000
     3  C    1.225168   1.410316   0.000000
     4  C    2.395559   2.379974   1.445678   0.000000
     5  C    3.549511   1.359269   2.463069   2.772243   0.000000
     6  C    3.603928   2.713398   2.452883   1.362697   2.383076
     7  C    4.088052   2.358709   2.866472   2.429944   1.359758
     8  H    2.440054   1.010852   2.046011   3.283781   2.060848
     9  H    2.668228   3.356020   2.155322   1.080880   3.852949
    10  H    4.358172   2.076420   3.396959   3.850879   1.081314
    11  H    4.502697   3.797333   3.431618   2.117661   3.360570
    12  H    5.166838   3.338710   3.945778   3.409120   2.120898
                    6          7          8          9         10
     6  C    0.000000
     7  C    1.420985   0.000000
     8  H    3.724002   3.272919   0.000000
     9  H    2.141172   3.421120   4.171513   0.000000
    10  H    3.395771   2.154694   2.344243   4.930927   0.000000
    11  H    1.083996   2.164741   4.807985   2.467959   4.298288
    12  H    2.189763   1.079335   4.170226   4.319705   2.503090
                   11         12
    11  H    0.000000
    12  H    2.512926   0.000000
 Stoichiometry    C5H5NO
 Framework group  CS[SG(C5H5NO)]
 Deg. of freedom    21
 Full point group                 CS      NOp   2
 RotChk:  IX=0 Diff= 5.95D-32
 Largest Abelian subgroup         CS      NOp   2
 Largest concise Abelian subgroup C1      NOp   1
                         Standard orientation:                         
 ---------------------------------------------------------------------
 Center     Atomic      Atomic             Coordinates (Angstroms)
 Number     Number       Type             X           Y           Z
 ---------------------------------------------------------------------
      1          8           0       -0.139620    2.282646   -0.000000
      2          7           0       -1.135962    0.229648   -0.000000
      3          6           0       -0.000000    1.065460   -0.000000
      4          6           0        1.242072    0.325702    0.000000
      5          6           0       -1.117531   -1.129496   -0.000000
      6          6           0        1.263742   -1.036822    0.000000
      7          6           0        0.065265   -1.800269    0.000000
      8          1           0       -2.017402    0.724507   -0.000000
      9          1           0        2.149879    0.912377    0.000000
     10          1           0       -2.081778   -1.618852   -0.000000
     11          1           0        2.216031   -1.554695    0.000000
     12          1           0        0.080684   -2.879493    0.000000
 ---------------------------------------------------------------------
 Rotational constants (GHZ):      5.6893870      2.7917390      1.8727800
 Leave Link  202 at Fri Sep  3 00:21:35 2021, MaxMem=  2415919104 cpu:         1.0
 (Enter /gpfs/share/home/1801110325/software/g09e01/l301.exe)
 Standard basis: GTBas1 (6D, 7F)
 Ernie: Thresh=  0.10000D-02 Tol=  0.10000D-05 Strict=F.
 There are    87 symmetry adapted cartesian basis functions of A'  symmetry.
 There are    28 symmetry adapted cartesian basis functions of A"  symmetry.
 There are    87 symmetry adapted basis functions of A'  symmetry.
 There are    28 symmetry adapted basis functions of A"  symmetry.
   115 basis functions,   216 primitive gaussians,   115 cartesian basis functions
    25 alpha electrons       25 beta electrons
       nuclear repulsion energy       275.5178949531 Hartrees.
 IExCor=    0 DFT=F Ex=HF Corr=None ExCW=0 ScaHFX=  1.000000
 ScaDFX=  1.000000  1.000000  1.000000  1.000000 ScalE2=  1.000000  1.000000
 IRadAn=      0 IRanWt=     -1 IRanGd=            0 ICorTp=0 IEmpDi=  4
 NAtoms=   12 NActive=   12 NUniq=   12 SFac= 1.00D+00 NAtFMM=   60 NAOKFM=F Big=F
 Integral buffers will be    131072 words long.
 Raffenetti 1 integral format.
 Two-electron integral symmetry is turned on.
 Leave Link  301 at Fri Sep  3 00:21:36 2021, MaxMem=  2415919104 cpu:         2.7
 (Enter /gpfs/share/home/1801110325/software/g09e01/l302.exe)
 NPDir=0 NMtPBC=     1 NCelOv=     1 NCel=       1 NClECP=     1 NCelD=      1
         NCelK=      1 NCelE2=     1 NClLst=     1 CellRange=     0.0.
 One-electron integrals computed using PRISM.
 NBasis=   115 RedAO= T EigKep=  1.05D-03  NBF=    87    28
 NBsUse=   115 1.00D-06 EigRej= -1.00D+00 NBFU=    87    28
 Leave Link  302 at Fri Sep  3 00:21:36 2021, MaxMem=  2415919104 cpu:         1.0
 (Enter /gpfs/share/home/1801110325/software/g09e01/l303.exe)
 DipDrv:  MaxL=1.
 Leave Link  303 at Fri Sep  3 00:21:36 2021, MaxMem=  2415919104 cpu:         0.4
 (Enter /gpfs/share/home/1801110325/software/g09e01/l401.exe)
 ExpMin= 1.61D-01 ExpMax= 5.48D+03 ExpMxC= 8.25D+02 IAcc=1 IRadAn=         1 AccDes= 0.00D+00
 Harris functional with IExCor=  205 and IRadAn=       1 diagonalized for initial guess.
 HarFok:  IExCor=  205 AccDes= 0.00D+00 IRadAn=         1 IDoV= 1 UseB2=F ITyADJ=14
 ICtDFT=  3500011 ScaDFX=  1.000000  1.000000  1.000000  1.000000
 FoFCou: FMM=F IPFlag=           0 FMFlag=      100000 FMFlg1=           0
         NFxFlg=           0 DoJE=T BraDBF=F KetDBF=T FulRan=T
         wScrn=  0.000000 ICntrl=     500 IOpCl=  0 I1Cent=   200000004 NGrid=           0
         NMat0=    1 NMatS0=      1 NMatT0=    0 NMatD0=    1 NMtDS0=    0 NMtDT0=    0
 Petite list used in FoFCou.
 Harris En= -321.918937855320    
 JPrj=0 DoOrth=F DoCkMO=F.
 Initial guess orbital symmetries:
       Occupied  (A') (A') (A') (A') (A') (A') (A') (A') (A') (A')
                 (A') (A') (A') (A') (A') (A') (A') (A') (A") (A')
                 (A') (A") (A") (A') (A")
       Virtual   (A") (A") (A") (A') (A') (A') (A') (A') (A') (A')
                 (A') (A') (A') (A') (A') (A") (A') (A') (A') (A")
                 (A') (A') (A") (A') (A') (A") (A") (A') (A') (A")
                 (A') (A') (A') (A') (A') (A') (A') (A") (A') (A')
                 (A') (A') (A") (A') (A") (A') (A") (A') (A") (A")
                 (A") (A') (A') (A') (A') (A") (A') (A') (A') (A')
                 (A') (A") (A') (A') (A") (A') (A') (A") (A") (A")
                 (A') (A') (A') (A") (A") (A') (A') (A') (A') (A')
                 (A') (A') (A') (A') (A') (A') (A') (A') (A') (A')
 The electronic state of the initial guess is 1-A'.
 Leave Link  401 at Fri Sep  3 00:21:36 2021, MaxMem=  2415919104 cpu:         1.7
 (Enter /gpfs/share/home/1801110325/software/g09e01/l502.exe)
 Closed shell SCF:
 Using DIIS extrapolation, IDIIS=  1040.
 Integral symmetry usage will be decided dynamically.
 Keep R1 ints in memory in symmetry-blocked form, NReq=34256320.
 IVT=       59824 IEndB=       59824 NGot=  2415919104 MDV=  2403910685
 LenX=  2403910685 LenY=  2403897019
 Requested convergence on RMS density matrix=1.00D-08 within 128 cycles.
 Requested convergence on MAX density matrix=1.00D-06.
 Requested convergence on             energy=1.00D-06.
 No special actions if energy rises.
 FoFCou: FMM=F IPFlag=           0 FMFlag=           0 FMFlg1=           0
         NFxFlg=           0 DoJE=F BraDBF=F KetDBF=F FulRan=T
         wScrn=  0.000000 ICntrl=     600 IOpCl=  0 I1Cent=           0 NGrid=           0
         NMat0=    1 NMatS0=   6670 NMatT0=    0 NMatD0=    1 NMtDS0=    0 NMtDT0=    0
 Petite list used in FoFCou.

 Cycle   1  Pass 1  IDiag  1:
 E= -321.283617856516    
 DIIS: error= 6.08D-02 at cycle   1 NSaved=   1.
 NSaved= 1 IEnMin= 1 EnMin= -321.283617856516     IErMin= 1 ErrMin= 6.08D-02
 ErrMax= 6.08D-02  0.00D+00 EMaxC= 1.00D-01 BMatC= 4.68D-01 BMatP= 4.68D-01
 IDIUse=3 WtCom= 3.92D-01 WtEn= 6.08D-01
 Coeff-Com:  0.100D+01
 Coeff-En:   0.100D+01
 Coeff:      0.100D+01
 Gap=     0.395 Goal=   None    Shift=    0.000
 GapD=    0.395 DampG=1.000 DampE=0.500 DampFc=0.5000 IDamp=-1.
 Damping current iteration by 5.00D-01
 RMSDP=6.85D-03 MaxDP=1.20D-01              OVMax= 1.54D-01

 Cycle   2  Pass 1  IDiag  1:
 E= -321.428897007514     Delta-E=       -0.145279150998 Rises=F Damp=T
 DIIS: error= 3.59D-02 at cycle   2 NSaved=   2.
 NSaved= 2 IEnMin= 2 EnMin= -321.428897007514     IErMin= 2 ErrMin= 3.59D-02
 ErrMax= 3.59D-02  0.00D+00 EMaxC= 1.00D-01 BMatC= 1.02D-01 BMatP= 4.68D-01
 IDIUse=3 WtCom= 6.41D-01 WtEn= 3.59D-01
 Coeff-Com: -0.627D+00 0.163D+01
 Coeff-En:   0.000D+00 0.100D+01
 Coeff:     -0.402D+00 0.140D+01
 Gap=     0.412 Goal=   None    Shift=    0.000
 RMSDP=2.85D-03 MaxDP=3.75D-02 DE=-1.45D-01 OVMax= 5.08D-02

 Cycle   3  Pass 1  IDiag  1:
 E= -321.561175057048     Delta-E=       -0.132278049534 Rises=F Damp=F
 DIIS: error= 5.99D-03 at cycle   3 NSaved=   3.
 NSaved= 3 IEnMin= 3 EnMin= -321.561175057048     IErMin= 3 ErrMin= 5.99D-03
 ErrMax= 5.99D-03  0.00D+00 EMaxC= 1.00D-01 BMatC= 2.69D-03 BMatP= 1.02D-01
 IDIUse=3 WtCom= 9.40D-01 WtEn= 5.99D-02
 Coeff-Com: -0.117D+00 0.200D+00 0.917D+00
 Coeff-En:   0.000D+00 0.000D+00 0.100D+01
 Coeff:     -0.110D+00 0.188D+00 0.922D+00
 Gap=     0.403 Goal=   None    Shift=    0.000
 RMSDP=5.54D-04 MaxDP=1.31D-02 DE=-1.32D-01 OVMax= 2.27D-02

 Cycle   4  Pass 1  IDiag  1:
 E= -321.563706983229     Delta-E=       -0.002531926181 Rises=F Damp=F
 DIIS: error= 2.47D-03 at cycle   4 NSaved=   4.
 NSaved= 4 IEnMin= 4 EnMin= -321.563706983229     IErMin= 4 ErrMin= 2.47D-03
 ErrMax= 2.47D-03  0.00D+00 EMaxC= 1.00D-01 BMatC= 5.78D-04 BMatP= 2.69D-03
 IDIUse=3 WtCom= 9.75D-01 WtEn= 2.47D-02
 Coeff-Com: -0.650D-02-0.926D-02 0.313D+00 0.703D+00
 Coeff-En:   0.000D+00 0.000D+00 0.000D+00 0.100D+01
 Coeff:     -0.634D-02-0.903D-02 0.305D+00 0.710D+00
 Gap=     0.406 Goal=   None    Shift=    0.000
 RMSDP=2.25D-04 MaxDP=3.73D-03 DE=-2.53D-03 OVMax= 6.04D-03

 Cycle   5  Pass 1  IDiag  1:
 E= -321.564341989884     Delta-E=       -0.000635006656 Rises=F Damp=F
 DIIS: error= 8.31D-04 at cycle   5 NSaved=   5.
 NSaved= 5 IEnMin= 5 EnMin= -321.564341989884     IErMin= 5 ErrMin= 8.31D-04
 ErrMax= 8.31D-04  0.00D+00 EMaxC= 1.00D-01 BMatC= 3.74D-05 BMatP= 5.78D-04
 IDIUse=3 WtCom= 9.92D-01 WtEn= 8.31D-03
 Coeff-Com:  0.116D-01-0.160D-01-0.139D+00-0.179D+00 0.132D+01
 Coeff-En:   0.000D+00 0.000D+00 0.000D+00 0.000D+00 0.100D+01
 Coeff:      0.115D-01-0.158D-01-0.138D+00-0.178D+00 0.132D+01
 Gap=     0.407 Goal=   None    Shift=    0.000
 RMSDP=1.60D-04 MaxDP=3.06D-03 DE=-6.35D-04 OVMax= 9.20D-03

 Cycle   6  Pass 1  IDiag  1:
 E= -321.564528314683     Delta-E=       -0.000186324799 Rises=F Damp=F
 DIIS: error= 3.17D-04 at cycle   6 NSaved=   6.
 NSaved= 6 IEnMin= 6 EnMin= -321.564528314683     IErMin= 6 ErrMin= 3.17D-04
 ErrMax= 3.17D-04  0.00D+00 EMaxC= 1.00D-01 BMatC= 8.38D-06 BMatP= 3.74D-05
 IDIUse=3 WtCom= 9.97D-01 WtEn= 3.17D-03
 Coeff-Com:  0.174D-02-0.912D-03-0.311D-01-0.115D+00-0.408D-01 0.119D+01
 Coeff-En:   0.000D+00 0.000D+00 0.000D+00 0.000D+00 0.000D+00 0.100D+01
 Coeff:      0.174D-02-0.909D-03-0.310D-01-0.114D+00-0.407D-01 0.119D+01
 Gap=     0.408 Goal=   None    Shift=    0.000
 RMSDP=8.20D-05 MaxDP=1.62D-03 DE=-1.86D-04 OVMax= 4.60D-03

 Cycle   7  Pass 1  IDiag  1:
 E= -321.564566236523     Delta-E=       -0.000037921840 Rises=F Damp=F
 DIIS: error= 1.37D-04 at cycle   7 NSaved=   7.
 NSaved= 7 IEnMin= 7 EnMin= -321.564566236523     IErMin= 7 ErrMin= 1.37D-04
 ErrMax= 1.37D-04  0.00D+00 EMaxC= 1.00D-01 BMatC= 1.50D-06 BMatP= 8.38D-06
 IDIUse=3 WtCom= 9.99D-01 WtEn= 1.37D-03
 Coeff-Com: -0.162D-02 0.222D-02 0.261D-01 0.763D-02-0.252D+00 0.167D+00
 Coeff-Com:  0.105D+01
 Coeff-En:   0.000D+00 0.000D+00 0.000D+00 0.000D+00 0.000D+00 0.000D+00
 Coeff-En:   0.100D+01
 Coeff:     -0.162D-02 0.221D-02 0.261D-01 0.762D-02-0.252D+00 0.167D+00
 Coeff:      0.105D+01
 Gap=     0.408 Goal=   None    Shift=    0.000
 RMSDP=3.32D-05 MaxDP=5.72D-04 DE=-3.79D-05 OVMax= 2.07D-03

 Cycle   8  Pass 1  IDiag  1:
 E= -321.564571805490     Delta-E=       -0.000005568967 Rises=F Damp=F
 DIIS: error= 4.10D-05 at cycle   8 NSaved=   8.
 NSaved= 8 IEnMin= 8 EnMin= -321.564571805490     IErMin= 8 ErrMin= 4.10D-05
 ErrMax= 4.10D-05  0.00D+00 EMaxC= 1.00D-01 BMatC= 1.66D-07 BMatP= 1.50D-06
 IDIUse=1 WtCom= 1.00D+00 WtEn= 0.00D+00
 Coeff-Com: -0.264D-03 0.205D-04 0.940D-02 0.167D-01-0.161D-01-0.164D+00
 Coeff-Com:  0.117D+00 0.104D+01
 Coeff:     -0.264D-03 0.205D-04 0.940D-02 0.167D-01-0.161D-01-0.164D+00
 Coeff:      0.117D+00 0.104D+01
 Gap=     0.408 Goal=   None    Shift=    0.000
 RMSDP=9.87D-06 MaxDP=1.92D-04 DE=-5.57D-06 OVMax= 5.28D-04

 Cycle   9  Pass 1  IDiag  1:
 E= -321.564572265142     Delta-E=       -0.000000459652 Rises=F Damp=F
 DIIS: error= 1.37D-05 at cycle   9 NSaved=   9.
 NSaved= 9 IEnMin= 9 EnMin= -321.564572265142     IErMin= 9 ErrMin= 1.37D-05
 ErrMax= 1.37D-05  0.00D+00 EMaxC= 1.00D-01 BMatC= 1.57D-08 BMatP= 1.66D-07
 IDIUse=1 WtCom= 1.00D+00 WtEn= 0.00D+00
 Coeff-Com:  0.188D-03-0.325D-03-0.130D-02-0.113D-02 0.145D-01-0.123D-01
 Coeff-Com: -0.694D-01-0.128D-02 0.107D+01
 Coeff:      0.188D-03-0.325D-03-0.130D-02-0.113D-02 0.145D-01-0.123D-01
 Coeff:     -0.694D-01-0.128D-02 0.107D+01
 Gap=     0.408 Goal=   None    Shift=    0.000
 RMSDP=2.81D-06 MaxDP=5.84D-05 DE=-4.60D-07 OVMax= 1.66D-04

 Cycle  10  Pass 1  IDiag  1:
 E= -321.564572315354     Delta-E=       -0.000000050212 Rises=F Damp=F
 DIIS: error= 5.69D-06 at cycle  10 NSaved=  10.
 NSaved=10 IEnMin=10 EnMin= -321.564572315354     IErMin=10 ErrMin= 5.69D-06
 ErrMax= 5.69D-06  0.00D+00 EMaxC= 1.00D-01 BMatC= 4.11D-09 BMatP= 1.57D-08
 IDIUse=1 WtCom= 1.00D+00 WtEn= 0.00D+00
 Coeff-Com:  0.126D-03-0.134D-03-0.199D-02-0.405D-02 0.364D-02 0.433D-01
 Coeff-Com: -0.283D-01-0.266D+00 0.637D-01 0.119D+01
 Coeff:      0.126D-03-0.134D-03-0.199D-02-0.405D-02 0.364D-02 0.433D-01
 Coeff:     -0.283D-01-0.266D+00 0.637D-01 0.119D+01
 Gap=     0.408 Goal=   None    Shift=    0.000
 RMSDP=1.48D-06 MaxDP=2.61D-05 DE=-5.02D-08 OVMax= 6.74D-05

 Cycle  11  Pass 1  IDiag  1:
 E= -321.564572328381     Delta-E=       -0.000000013027 Rises=F Damp=F
 DIIS: error= 1.92D-06 at cycle  11 NSaved=  11.
 NSaved=11 IEnMin=11 EnMin= -321.564572328381     IErMin=11 ErrMin= 1.92D-06
 ErrMax= 1.92D-06  0.00D+00 EMaxC= 1.00D-01 BMatC= 2.89D-10 BMatP= 4.11D-09
 IDIUse=1 WtCom= 1.00D+00 WtEn= 0.00D+00
 Coeff-Com: -0.200D-04 0.233D-04 0.397D-03 0.495D-03-0.260D-02-0.127D-02
 Coeff-Com:  0.966D-02 0.222D-01-0.904D-01-0.194D+00 0.126D+01
 Coeff:     -0.200D-04 0.233D-04 0.397D-03 0.495D-03-0.260D-02-0.127D-02
 Coeff:      0.966D-02 0.222D-01-0.904D-01-0.194D+00 0.126D+01
 Gap=     0.408 Goal=   None    Shift=    0.000
 RMSDP=4.78D-07 MaxDP=8.43D-06 DE=-1.30D-08 OVMax= 2.72D-05

 Cycle  12  Pass 1  IDiag  1:
 E= -321.564572329689     Delta-E=       -0.000000001308 Rises=F Damp=F
 DIIS: error= 6.29D-07 at cycle  12 NSaved=  12.
 NSaved=12 IEnMin=12 EnMin= -321.564572329689     IErMin=12 ErrMin= 6.29D-07
 ErrMax= 6.29D-07  0.00D+00 EMaxC= 1.00D-01 BMatC= 4.36D-11 BMatP= 2.89D-10
 IDIUse=1 WtCom= 1.00D+00 WtEn= 0.00D+00
 Coeff-Com: -0.138D-04 0.137D-04 0.250D-03 0.484D-03-0.831D-03-0.433D-02
 Coeff-Com:  0.277D-02 0.308D-01-0.103D-01-0.160D+00 0.128D+00 0.101D+01
 Coeff:     -0.138D-04 0.137D-04 0.250D-03 0.484D-03-0.831D-03-0.433D-02
 Coeff:      0.277D-02 0.308D-01-0.103D-01-0.160D+00 0.128D+00 0.101D+01
 Gap=     0.408 Goal=   None    Shift=    0.000
 RMSDP=1.81D-07 MaxDP=2.41D-06 DE=-1.31D-09 OVMax= 9.04D-06

 Cycle  13  Pass 1  IDiag  1:
 E= -321.564572329846     Delta-E=       -0.000000000157 Rises=F Damp=F
 DIIS: error= 2.99D-07 at cycle  13 NSaved=  13.
 NSaved=13 IEnMin=13 EnMin= -321.564572329846     IErMin=13 ErrMin= 2.99D-07
 ErrMax= 2.99D-07  0.00D+00 EMaxC= 1.00D-01 BMatC= 6.99D-12 BMatP= 4.36D-11
 IDIUse=1 WtCom= 1.00D+00 WtEn= 0.00D+00
 Coeff-Com:  0.524D-05-0.562D-05-0.103D-03-0.140D-03 0.487D-03 0.125D-02
 Coeff-Com: -0.276D-02-0.741D-02 0.176D-01 0.557D-01-0.236D+00-0.118D+00
 Coeff-Com:  0.129D+01
 Coeff:      0.524D-05-0.562D-05-0.103D-03-0.140D-03 0.487D-03 0.125D-02
 Coeff:     -0.276D-02-0.741D-02 0.176D-01 0.557D-01-0.236D+00-0.118D+00
 Coeff:      0.129D+01
 Gap=     0.408 Goal=   None    Shift=    0.000
 RMSDP=7.28D-08 MaxDP=1.23D-06 DE=-1.57D-10 OVMax= 4.42D-06

 Cycle  14  Pass 1  IDiag  1:
 E= -321.564572329875     Delta-E=       -0.000000000029 Rises=F Damp=F
 DIIS: error= 9.69D-08 at cycle  14 NSaved=  14.
 NSaved=14 IEnMin=14 EnMin= -321.564572329875     IErMin=14 ErrMin= 9.69D-08
 ErrMax= 9.69D-08  0.00D+00 EMaxC= 1.00D-01 BMatC= 9.31D-13 BMatP= 6.99D-12
 IDIUse=1 WtCom= 1.00D+00 WtEn= 0.00D+00
 Coeff-Com:  0.135D-05-0.124D-05-0.277D-04-0.479D-04 0.551D-04 0.579D-03
 Coeff-Com: -0.421D-03-0.336D-02-0.630D-03 0.175D-01-0.712D-02-0.129D+00
 Coeff-Com: -0.780D-01 0.120D+01
 Coeff:      0.135D-05-0.124D-05-0.277D-04-0.479D-04 0.551D-04 0.579D-03
 Coeff:     -0.421D-03-0.336D-02-0.630D-03 0.175D-01-0.712D-02-0.129D+00
 Coeff:     -0.780D-01 0.120D+01
 Gap=     0.408 Goal=   None    Shift=    0.000
 RMSDP=2.83D-08 MaxDP=4.48D-07 DE=-2.91D-11 OVMax= 1.68D-06

 Cycle  15  Pass 1  IDiag  1:
 E= -321.564572329879     Delta-E=       -0.000000000003 Rises=F Damp=F
 DIIS: error= 3.28D-08 at cycle  15 NSaved=  15.
 NSaved=15 IEnMin=15 EnMin= -321.564572329879     IErMin=15 ErrMin= 3.28D-08
 ErrMax= 3.28D-08  0.00D+00 EMaxC= 1.00D-01 BMatC= 1.11D-13 BMatP= 9.31D-13
 IDIUse=1 WtCom= 1.00D+00 WtEn= 0.00D+00
 Coeff-Com: -0.434D-06 0.473D-06 0.908D-05 0.116D-04-0.644D-04-0.260D-04
 Coeff-Com:  0.236D-03 0.434D-03-0.245D-02-0.357D-02 0.332D-01-0.393D-02
 Coeff-Com: -0.176D+00 0.221D+00 0.931D+00
 Coeff:     -0.434D-06 0.473D-06 0.908D-05 0.116D-04-0.644D-04-0.260D-04
 Coeff:      0.236D-03 0.434D-03-0.245D-02-0.357D-02 0.332D-01-0.393D-02
 Coeff:     -0.176D+00 0.221D+00 0.931D+00
 Gap=     0.408 Goal=   None    Shift=    0.000
 RMSDP=7.60D-09 MaxDP=1.40D-07 DE=-3.41D-12 OVMax= 2.27D-07

 SCF Done:  E(RHF) =  -321.564572330     A.U. after   15 cycles
            NFock= 15  Conv=0.76D-08     -V/T= 2.0024
 KE= 3.208088600795D+02 PE=-1.303479127987D+03 EE= 3.855878006247D+02
 Leave Link  502 at Fri Sep  3 00:21:37 2021, MaxMem=  2415919104 cpu:         5.3
 (Enter /gpfs/share/home/1801110325/software/g09e01/l601.exe)
 Copying SCF densities to generalized density rwf, IOpCl= 0 IROHF=0.

 **********************************************************************

            Population analysis using the SCF density.

 **********************************************************************

 Orbital symmetries:
       Occupied  (A') (A') (A') (A') (A') (A') (A') (A') (A') (A')
                 (A') (A') (A') (A') (A') (A') (A') (A') (A") (A')
                 (A') (A") (A") (A') (A")
       Virtual   (A") (A") (A') (A') (A') (A') (A') (A") (A') (A')
                 (A') (A') (A') (A') (A') (A") (A') (A') (A') (A")
                 (A') (A") (A') (A') (A") (A") (A') (A') (A") (A')
                 (A') (A') (A') (A') (A') (A') (A') (A') (A') (A")
                 (A') (A') (A') (A") (A') (A") (A') (A") (A") (A')
                 (A") (A") (A') (A') (A') (A') (A") (A') (A') (A')
                 (A") (A') (A') (A') (A") (A') (A') (A") (A") (A")
                 (A') (A') (A') (A") (A") (A') (A') (A') (A') (A')
                 (A') (A') (A') (A') (A') (A') (A') (A') (A') (A')
 The electronic state is 1-A'.
 Alpha  occ. eigenvalues --  -20.51172 -15.62687 -11.35268 -11.31266 -11.27111
 Alpha  occ. eigenvalues --  -11.24055 -11.23592  -1.37116  -1.27197  -1.10521
 Alpha  occ. eigenvalues --   -1.02803  -0.88424  -0.85803  -0.75388  -0.69165
 Alpha  occ. eigenvalues --   -0.67421  -0.63605  -0.60681  -0.59972  -0.55561
 Alpha  occ. eigenvalues --   -0.53488  -0.48001  -0.42012  -0.41710  -0.30714
 Alpha virt. eigenvalues --    0.10070   0.17355   0.20769   0.25790   0.27914
 Alpha virt. eigenvalues --    0.30887   0.32382   0.34667   0.39738   0.44704
 Alpha virt. eigenvalues --    0.46172   0.49407   0.51037   0.64079   0.68394
 Alpha virt. eigenvalues --    0.72452   0.73324   0.74712   0.79527   0.80044
 Alpha virt. eigenvalues --    0.81091   0.82549   0.84383   0.86445   0.89072
 Alpha virt. eigenvalues --    0.92780   0.95181   1.02839   1.06693   1.06956
 Alpha virt. eigenvalues --    1.09302   1.11729   1.12383   1.14745   1.17388
 Alpha virt. eigenvalues --    1.19062   1.23141   1.26640   1.29799   1.34239
 Alpha virt. eigenvalues --    1.37143   1.43530   1.45144   1.47413   1.57666
 Alpha virt. eigenvalues --    1.62784   1.66281   1.69709   1.73017   1.74290
 Alpha virt. eigenvalues --    1.74882   1.76142   1.88166   1.97684   2.04766
 Alpha virt. eigenvalues --    2.11959   2.12410   2.20182   2.22730   2.25188
 Alpha virt. eigenvalues --    2.29441   2.30456   2.39967   2.41588   2.44050
 Alpha virt. eigenvalues --    2.46370   2.52712   2.56375   2.60619   2.64455
 Alpha virt. eigenvalues --    2.68075   2.87048   2.90141   2.98111   2.99664
 Alpha virt. eigenvalues --    3.01112   3.04325   3.10971   3.12314   3.19824
 Alpha virt. eigenvalues --    3.37779   3.53168   3.76877   4.38184   4.47519
 Alpha virt. eigenvalues --    4.52442   4.62699   4.68344   4.88529   5.12009
          Condensed to atoms (all electrons):
               1          2          3          4          5          6
     1  O    8.196104  -0.097669   0.604984  -0.069896   0.002550   0.003558
     2  N   -0.097669   7.297553   0.242810  -0.094781   0.283838  -0.017074
     3  C    0.604984   0.242810   3.994096   0.455849  -0.025222  -0.036765
     4  C   -0.069896  -0.094781   0.455849   5.221669  -0.019943   0.541942
     5  C    0.002550   0.283838  -0.025222  -0.019943   4.674392  -0.058845
     6  C    0.003558  -0.017074  -0.036765   0.541942  -0.058845   4.894556
     7  C    0.000008  -0.046567  -0.010151  -0.044400   0.639535   0.450942
     8  H    0.007592   0.308109  -0.008111   0.005926  -0.022787  -0.000741
     9  H    0.000795   0.003851  -0.023526   0.380484  -0.000075  -0.029849
    10  H   -0.000065  -0.039300   0.000653  -0.000346   0.389911   0.002888
    11  H   -0.000038  -0.000223   0.001170  -0.024632   0.003100   0.381091
    12  H    0.000001   0.002496   0.000213   0.002126  -0.027851  -0.024904
               7          8          9         10         11         12
     1  O    0.000008   0.007592   0.000795  -0.000065  -0.000038   0.000001
     2  N   -0.046567   0.308109   0.003851  -0.039300  -0.000223   0.002496
     3  C   -0.010151  -0.008111  -0.023526   0.000653   0.001170   0.000213
     4  C   -0.044400   0.005926   0.380484  -0.000346  -0.024632   0.002126
     5  C    0.639535  -0.022787  -0.000075   0.389911   0.003100  -0.027851
     6  C    0.450942  -0.000741  -0.029849   0.002888   0.381091  -0.024904
     7  C    5.003858   0.002601   0.002298  -0.024648  -0.030936   0.385694
     8  H    0.002601   0.300098  -0.000091  -0.003061   0.000012  -0.000076
     9  H    0.002298  -0.000091   0.439136   0.000010  -0.002166  -0.000084
    10  H   -0.024648  -0.003061   0.000010   0.439515  -0.000093  -0.000903
    11  H   -0.030936   0.000012  -0.002166  -0.000093   0.451017  -0.001307
    12  H    0.385694  -0.000076  -0.000084  -0.000903  -0.001307   0.448178
 Mulliken charges:
               1
     1  O   -0.647924
     2  N   -0.843045
     3  C    0.804000
     4  C   -0.353999
     5  C    0.161395
     6  C   -0.106799
     7  C   -0.328233
     8  H    0.410529
     9  H    0.229218
    10  H    0.235438
    11  H    0.223005
    12  H    0.216415
 Sum of Mulliken charges =  -0.00000
 Mulliken charges with hydrogens summed into heavy atoms:
               1
     1  O   -0.647924
     2  N   -0.432516
     3  C    0.804000
     4  C   -0.124781
     5  C    0.396834
     6  C    0.116206
     7  C   -0.111818
 Electronic spatial extent (au):  <R**2>=            630.1819
 Charge=             -0.0000 electrons
 Dipole moment (field-independent basis, Debye):
    X=             -1.2112    Y=             -4.6860    Z=             -0.0000  Tot=              4.8400
 Quadrupole moment (field-independent basis, Debye-Ang):
   XX=            -30.5024   YY=            -47.7309   ZZ=            -43.0087
   XY=              0.2558   XZ=              0.0000   YZ=             -0.0000
 Traceless Quadrupole moment (field-independent basis, Debye-Ang):
   XX=              9.9116   YY=             -7.3169   ZZ=             -2.5947
   XY=              0.2558   XZ=              0.0000   YZ=             -0.0000
 Octapole moment (field-independent basis, Debye-Ang**2):
  XXX=            -12.2318  YYY=            -31.7084  ZZZ=             -0.0000  XYY=              0.0943
  XXY=              0.2939  XXZ=             -0.0000  XZZ=             -2.1119  YZZ=              5.6475
  YYZ=             -0.0000  XYZ=             -0.0000
 Hexadecapole moment (field-independent basis, Debye-Ang**3):
 XXXX=           -227.1462 YYYY=           -532.3614 ZZZZ=            -42.2692 XXXY=              2.3077
 XXXZ=             -0.0000 YYYX=              8.3713 YYYZ=              0.0000 ZZZX=             -0.0000
 ZZZY=              0.0000 XXYY=           -110.9319 XXZZ=            -59.0712 YYZZ=            -93.3922
 XXYZ=             -0.0000 YYXZ=             -0.0000 ZZXY=              1.3609
 N-N= 2.755178949531D+02 E-N=-1.303479128628D+03  KE= 3.208088600795D+02
 Symmetry A'   KE= 3.099247288523D+02
 Symmetry A"   KE= 1.088413122715D+01
 No NMR shielding tensors so no spin-rotation constants.
 Leave Link  601 at Fri Sep  3 00:21:37 2021, MaxMem=  2415919104 cpu:         0.5
 (Enter /gpfs/share/home/1801110325/software/g09e01/l701.exe)
 Compute integral first derivatives.
 ... and contract with generalized density number  0.
 Leave Link  701 at Fri Sep  3 00:21:38 2021, MaxMem=  2415919104 cpu:         0.5
 (Enter /gpfs/share/home/1801110325/software/g09e01/l702.exe)
 L702 exits ... SP integral derivatives will be done elsewhere.
 Leave Link  702 at Fri Sep  3 00:21:38 2021, MaxMem=  2415919104 cpu:         0.1
 (Enter /gpfs/share/home/1801110325/software/g09e01/l703.exe)
 Compute integral first derivatives, UseDBF=F ICtDFT=           0.
 Integral derivatives from FoFJK, PRISM(SPDF).
 Calling FoFJK, ICntrl=      2127 FMM=F ISym2X=1 I1Cent= 0 IOpClX= 0 NMat=1 NMatS=1 NMatT=0.
 FoFJK:  IHMeth= 1 ICntrl=    2127 DoSepK=F KAlg= 0 I1Cent=   0 FoldK=F
 IRaf=         0 NMat=   1 IRICut=       1 DoRegI=T DoRafI=F ISym2E= 1.
 FoFCou: FMM=F IPFlag=           0 FMFlag=      100000 FMFlg1=         800
         NFxFlg=           0 DoJE=F BraDBF=F KetDBF=F FulRan=T
         wScrn=  0.000000 ICntrl=    2127 IOpCl=  0 I1Cent=           0 NGrid=           0
         NMat0=    1 NMatS0=      1 NMatT0=    0 NMatD0=    1 NMtDS0=    0 NMtDT0=    0
 Petite list used in FoFCou.
 Leave Link  703 at Fri Sep  3 00:21:38 2021, MaxMem=  2415919104 cpu:         2.8
 (Enter /gpfs/share/home/1801110325/software/g09e01/l716.exe)
 Dipole        =-4.76526389D-01-1.84359636D+00-1.98665109D-31
 ***** Axes restored to original set *****
 -------------------------------------------------------------------
 Center     Atomic                   Forces (Hartrees/Bohr)
 Number     Number              X              Y              Z
 -------------------------------------------------------------------
      1        8           0.004957057   -0.039349639    0.000000000
      2        7           0.001381477    0.015864618   -0.000000000
      3        6          -0.022187583    0.021811729   -0.000000000
      4        6           0.010191498   -0.010953227    0.000000000
      5        6           0.013211431   -0.005206153    0.000000000
      6        6           0.007616260    0.018868783   -0.000000000
      7        6          -0.022175515   -0.003429509   -0.000000000
      8        1           0.011381037   -0.006149832    0.000000000
      9        1          -0.005143270   -0.003546610   -0.000000000
     10        1           0.005969601    0.002898288    0.000000000
     11        1          -0.005356991    0.003626361   -0.000000000
     12        1           0.000154997    0.005565191   -0.000000000
 -------------------------------------------------------------------
 Cartesian Forces:  Max     0.039349639 RMS     0.011131662
 Leave Link  716 at Fri Sep  3 00:21:38 2021, MaxMem=  2415919104 cpu:         0.1
 (Enter /gpfs/share/home/1801110325/software/g09e01/l103.exe)

 GradGradGradGradGradGradGradGradGradGradGradGradGradGradGradGradGradGrad
 Berny optimization.
 FormGI is forming the generalized inverse of G from B-inverse, IUseBI=4.
 Internal  Forces:  Max     0.039657141 RMS     0.007552194
 Search for a local minimum.
 Step number   1 out of a maximum of   64
 All quantities printed in internal units (Hartrees-Bohrs-Radians)
 RMS Force = .75522D-02 SwitMx=.10000D-02 MixMth= 1
 Mixed Optimization -- RFO/linear search
 Second derivative matrix not updated -- first step.
 ITU=  0
     Eigenvalues ---    0.01516   0.01697   0.01896   0.02004   0.02107
     Eigenvalues ---    0.02162   0.02278   0.02384   0.02461   0.16000
     Eigenvalues ---    0.16000   0.16000   0.16000   0.16000   0.22000
     Eigenvalues ---    0.22000   0.23415   0.25000   0.35516   0.35836
     Eigenvalues ---    0.35888   0.36075   0.37563   0.40231   0.43299
     Eigenvalues ---    0.45830   0.48823   0.52045   0.52802   0.93130
 RFO step:  Lambda=-5.00263995D-03 EMin= 1.51641498D-02
 Linear search not attempted -- first point.
 Iteration  1 RMS(Cart)=  0.01740965 RMS(Int)=  0.00004260
 Iteration  2 RMS(Cart)=  0.00004602 RMS(Int)=  0.00000693
 Iteration  3 RMS(Cart)=  0.00000000 RMS(Int)=  0.00000693
 ITry= 1 IFail=0 DXMaxC= 7.60D-02 DCOld= 1.00D+10 DXMaxT= 3.00D-01 DXLimC= 3.00D+00 Rises=F
 ClnCor:  largest displacement from symmetrization is 3.90D-12 for atom    11.
 Variable       Old X    -DE/DX   Delta X   Delta X   Delta X     New X
                                 (Linear)    (Quad)   (Total)
    R1        2.31523  -0.03966   0.00000  -0.04236  -0.04236   2.27288
    R2        2.66511  -0.02021   0.00000  -0.04594  -0.04593   2.61919
    R3        2.56865  -0.00418   0.00000  -0.00839  -0.00839   2.56025
    R4        1.91023  -0.01293   0.00000  -0.02792  -0.02792   1.88232
    R5        2.73194   0.00018   0.00000   0.00081   0.00082   2.73276
    R6        2.57512  -0.01815   0.00000  -0.03371  -0.03371   2.54141
    R7        2.04257  -0.00624   0.00000  -0.01716  -0.01716   2.02541
    R8        2.56957  -0.01807   0.00000  -0.03403  -0.03404   2.53553
    R9        2.04339  -0.00664   0.00000  -0.01826  -0.01826   2.02513
   R10        2.68527   0.00651   0.00000   0.01566   0.01565   2.70092
   R11        2.04846  -0.00644   0.00000  -0.01788  -0.01788   2.03057
   R12        2.03965  -0.00556   0.00000  -0.01521  -0.01521   2.02444
    A1        2.19157  -0.00109   0.00000  -0.00673  -0.00672   2.18485
    A2        1.99569   0.00032   0.00000   0.00199   0.00199   1.99767
    A3        2.09593   0.00077   0.00000   0.00474   0.00473   2.10066
    A4        2.09092  -0.00130   0.00000  -0.00511  -0.00512   2.08580
    A5        2.22217  -0.00252   0.00000  -0.00990  -0.00991   2.21226
    A6        1.97009   0.00382   0.00000   0.01501   0.01503   1.98513
    A7        2.12386  -0.00351   0.00000  -0.01325  -0.01324   2.11062
    A8        2.03069   0.00196   0.00000   0.00787   0.00786   2.03855
    A9        2.12863   0.00155   0.00000   0.00538   0.00538   2.13401
   A10        2.10024   0.00249   0.00000   0.00944   0.00943   2.10967
   A11        2.02687  -0.00114   0.00000  -0.00408  -0.00408   2.02279
   A12        2.15608  -0.00135   0.00000  -0.00535  -0.00535   2.15073
   A13        2.12209   0.00037   0.00000   0.00424   0.00423   2.12632
   A14        2.08478  -0.00081   0.00000  -0.00592  -0.00592   2.07887
   A15        2.07632   0.00044   0.00000   0.00168   0.00169   2.07800
   A16        2.05852  -0.00209   0.00000  -0.00871  -0.00873   2.04978
   A17        2.10097   0.00127   0.00000   0.00573   0.00574   2.10671
   A18        2.12370   0.00082   0.00000   0.00298   0.00299   2.12670
    D1        3.14159  -0.00000   0.00000  -0.00000   0.00000   3.14159
    D2       -0.00000  -0.00000   0.00000  -0.00000   0.00000   0.00000
    D3        0.00000   0.00000   0.00000   0.00000  -0.00000   0.00000
    D4        3.14159   0.00000   0.00000  -0.00000   0.00000   3.14159
    D5        0.00000   0.00000   0.00000   0.00000  -0.00000   0.00000
    D6        3.14159  -0.00000   0.00000   0.00000   0.00000   3.14159
    D7        3.14159  -0.00000   0.00000  -0.00000   0.00000   3.14159
    D8       -0.00000   0.00000   0.00000  -0.00000   0.00000   0.00000
    D9        3.14159   0.00000   0.00000   0.00000   0.00000   3.14159
   D10       -0.00000   0.00000   0.00000  -0.00000   0.00000   0.00000
   D11        0.00000   0.00000   0.00000   0.00000  -0.00000   0.00000
   D12        3.14159   0.00000   0.00000   0.00000   0.00000   3.14159
   D13       -0.00000  -0.00000   0.00000  -0.00000   0.00000   0.00000
   D14        3.14159  -0.00000   0.00000  -0.00000   0.00000   3.14159
   D15        3.14159   0.00000   0.00000   0.00000   0.00000   3.14159
   D16        0.00000  -0.00000   0.00000  -0.00000   0.00000   0.00000
   D17       -0.00000   0.00000   0.00000   0.00000   0.00000   0.00000
   D18        3.14159   0.00000   0.00000   0.00000   0.00000   3.14159
   D19        3.14159   0.00000   0.00000   0.00000   0.00000   3.14159
   D20        0.00000  -0.00000   0.00000   0.00000  -0.00000   0.00000
   D21        0.00000  -0.00000   0.00000   0.00000  -0.00000   0.00000
   D22        3.14159  -0.00000   0.00000  -0.00000   0.00000   3.14159
   D23        3.14159  -0.00000   0.00000   0.00000   0.00000   3.14159
   D24       -0.00000  -0.00000   0.00000  -0.00000   0.00000   0.00000
         Item               Value     Threshold  Converged?
 Maximum Force            0.039657     0.000450     NO 
 RMS     Force            0.007552     0.000300     NO 
 Maximum Displacement     0.075965     0.001800     NO 
 RMS     Displacement     0.017423     0.001200     NO 
 Predicted change in Energy=-2.525015D-03
 Lowest energy point so far.  Saving SCF results.
 GradGradGradGradGradGradGradGradGradGradGradGradGradGradGradGradGradGrad

 Leave Link  103 at Fri Sep  3 00:21:38 2021, MaxMem=  2415919104 cpu:         0.0
 (Enter /gpfs/share/home/1801110325/software/g09e01/l202.exe)
                          Input orientation:                          
 ---------------------------------------------------------------------
 Center     Atomic      Atomic             Coordinates (Angstroms)
 Number     Number       Type             X           Y           Z
 ---------------------------------------------------------------------
      1          8           0       -0.140884    2.244749   -0.000000
      2          7           0       -1.127705    0.235772   -0.000000
      3          6           0       -0.005784    1.049606   -0.000000
      4          6           0        1.242735    0.319918    0.000000
      5          6           0       -1.109403   -1.118932   -0.000000
      6          6           0        1.257430   -1.024859    0.000000
      7          6           0        0.051397   -1.791854    0.000000
      8          1           0       -1.993921    0.727548   -0.000000
      9          1           0        2.142681    0.902026    0.000000
     10          1           0       -2.067028   -1.599963   -0.000000
     11          1           0        2.201889   -1.537323    0.000000
     12          1           0        0.062695   -2.863080    0.000000
 ---------------------------------------------------------------------
                    Distance matrix (angstroms):
                    1          2          3          4          5
     1  O    0.000000
     2  N    2.238259   0.000000
     3  C    1.202755   1.386013   0.000000
     4  C    2.370522   2.371933   1.446113   0.000000
     5  C    3.500339   1.354828   2.433214   2.757325   0.000000
     6  C    3.556067   2.697788   2.428809   1.344857   2.368702
     7  C    4.041180   2.345539   2.842035   2.424638   1.341745
     8  H    2.394920   0.996079   2.014053   3.262224   2.047403
     9  H    2.649070   3.337562   2.153528   1.071799   3.828880
    10  H    4.300213   2.062099   3.356924   3.826287   1.071651
    11  H    4.448893   3.772276   3.400885   2.090292   3.337620
    12  H    5.111884   3.319630   3.913285   3.394698   2.101397
                    6          7          8          9         10
     6  C    0.000000
     7  C    1.429265   0.000000
     8  H    3.693537   3.245106   0.000000
     9  H    2.120508   3.410346   4.140280   0.000000
    10  H    3.373835   2.127098   2.328659   4.897101   0.000000
    11  H    1.074534   2.165503   4.768067   2.440068   4.269377
    12  H    2.192362   1.071286   4.137908   4.301438   2.476123
                   11         12
    11  H    0.000000
    12  H    2.516701   0.000000
 Stoichiometry    C5H5NO
 Framework group  CS[SG(C5H5NO)]
 Deg. of freedom    21
 Full point group                 CS      NOp   2
 RotChk:  IX=0 Diff= 9.34D-03
 Largest Abelian subgroup         CS      NOp   2
 Largest concise Abelian subgroup C1      NOp   1
                         Standard orientation:                         
 ---------------------------------------------------------------------
 Center     Atomic      Atomic             Coordinates (Angstroms)
 Number     Number       Type             X           Y           Z
 ---------------------------------------------------------------------
      1          8           0       -0.129815    2.248527   -0.000000
      2          7           0       -1.125509    0.243934   -0.000000
      3          6           0       -0.000000    1.052798   -0.000000
      4          6           0        1.245280    0.317598    0.000000
      5          6           0       -1.113196   -1.110838   -0.000000
      6          6           0        1.254029   -1.027231    0.000000
      7          6           0        0.044617   -1.788886    0.000000
      8          1           0       -1.989542    0.739534   -0.000000
      9          1           0        2.147791    0.895721    0.000000
     10          1           0       -2.072939   -1.587630   -0.000000
     11          1           0        2.196213   -1.543866    0.000000
     12          1           0        0.051179   -2.860152    0.000000
 ---------------------------------------------------------------------
 Rotational constants (GHZ):      5.7483202      2.8595898      1.9096201
 Leave Link  202 at Fri Sep  3 00:21:38 2021, MaxMem=  2415919104 cpu:         0.0
 (Enter /gpfs/share/home/1801110325/software/g09e01/l301.exe)
 Standard basis: GTBas1 (6D, 7F)
 Ernie: Thresh=  0.10000D-02 Tol=  0.10000D-05 Strict=F.
 There are    87 symmetry adapted cartesian basis functions of A'  symmetry.
 There are    28 symmetry adapted cartesian basis functions of A"  symmetry.
 There are    87 symmetry adapted basis functions of A'  symmetry.
 There are    28 symmetry adapted basis functions of A"  symmetry.
   115 basis functions,   216 primitive gaussians,   115 cartesian basis functions
    25 alpha electrons       25 beta electrons
       nuclear repulsion energy       278.0750883004 Hartrees.
 IExCor=    0 DFT=F Ex=HF Corr=None ExCW=0 ScaHFX=  1.000000
 ScaDFX=  1.000000  1.000000  1.000000  1.000000 ScalE2=  1.000000  1.000000
 IRadAn=      0 IRanWt=     -1 IRanGd=            0 ICorTp=0 IEmpDi=  4
 NAtoms=   12 NActive=   12 NUniq=   12 SFac= 1.00D+00 NAtFMM=   60 NAOKFM=F Big=F
 Integral buffers will be    131072 words long.
 Raffenetti 1 integral format.
 Two-electron integral symmetry is turned on.
 Leave Link  301 at Fri Sep  3 00:21:38 2021, MaxMem=  2415919104 cpu:         0.2
 (Enter /gpfs/share/home/1801110325/software/g09e01/l302.exe)
 NPDir=0 NMtPBC=     1 NCelOv=     1 NCel=       1 NClECP=     1 NCelD=      1
         NCelK=      1 NCelE2=     1 NClLst=     1 CellRange=     0.0.
 One-electron integrals computed using PRISM.
 NBasis=   115 RedAO= T EigKep=  1.01D-03  NBF=    87    28
 NBsUse=   115 1.00D-06 EigRej= -1.00D+00 NBFU=    87    28
 Leave Link  302 at Fri Sep  3 00:21:38 2021, MaxMem=  2415919104 cpu:         0.5
 (Enter /gpfs/share/home/1801110325/software/g09e01/l303.exe)
 DipDrv:  MaxL=1.
 Leave Link  303 at Fri Sep  3 00:21:38 2021, MaxMem=  2415919104 cpu:         0.5
 (Enter /gpfs/share/home/1801110325/software/g09e01/l401.exe)
 Initial guess from the checkpoint file:  "PY_G3.chk"
 B after Tr=     0.000000   -0.000000    0.000000
         Rot=    0.999996    0.000000   -0.000000    0.002888 Ang=   0.33 deg.
 Guess basis will be translated and rotated to current coordinates.
 JPrj=2 DoOrth=T DoCkMO=T.
 Initial guess orbital symmetries:
       Occupied  (A') (A') (A') (A') (A') (A') (A') (A') (A') (A')
                 (A') (A') (A') (A') (A') (A') (A') (A') (A") (A')
                 (A') (A") (A") (A') (A")
       Virtual   (A') (A') (A') (A') (A') (A') (A') (A') (A') (A')
                 (A') (A') (A') (A') (A') (A') (A') (A') (A') (A')
                 (A') (A') (A') (A') (A') (A') (A') (A') (A') (A')
                 (A') (A') (A') (A') (A') (A') (A') (A') (A') (A')
                 (A') (A') (A') (A') (A') (A') (A') (A') (A') (A')
                 (A') (A') (A') (A') (A') (A') (A') (A') (A') (A')
                 (A') (A') (A') (A') (A') (A') (A") (A") (A") (A")
                 (A") (A") (A") (A") (A") (A") (A") (A") (A") (A")
                 (A") (A") (A") (A") (A") (A") (A") (A") (A") (A")
 The electronic state of the initial guess is 1-A'.
 Generating alternative initial guess.
 ExpMin= 1.61D-01 ExpMax= 5.48D+03 ExpMxC= 8.25D+02 IAcc=1 IRadAn=         1 AccDes= 0.00D+00
 Harris functional with IExCor=  205 and IRadAn=       1 diagonalized for initial guess.
 HarFok:  IExCor=  205 AccDes= 0.00D+00 IRadAn=         1 IDoV= 1 UseB2=F ITyADJ=14
 ICtDFT=  3500011 ScaDFX=  1.000000  1.000000  1.000000  1.000000
 FoFCou: FMM=F IPFlag=           0 FMFlag=      100000 FMFlg1=           0
         NFxFlg=           0 DoJE=T BraDBF=F KetDBF=T FulRan=T
         wScrn=  0.000000 ICntrl=     500 IOpCl=  0 I1Cent=   200000004 NGrid=           0
         NMat0=    1 NMatS0=      1 NMatT0=    0 NMatD0=    1 NMtDS0=    0 NMtDT0=    0
 Petite list used in FoFCou.
 Harris En= -321.924546346815    
 Leave Link  401 at Fri Sep  3 00:21:39 2021, MaxMem=  2415919104 cpu:         1.0
 (Enter /gpfs/share/home/1801110325/software/g09e01/l502.exe)
 Closed shell SCF:
 Using DIIS extrapolation, IDIIS=  1040.
 Integral symmetry usage will be decided dynamically.
 Keep R1 ints in memory in symmetry-blocked form, NReq=34256320.
 IVT=       59824 IEndB=       59824 NGot=  2415919104 MDV=  2403910685
 LenX=  2403910685 LenY=  2403897019
 Requested convergence on RMS density matrix=1.00D-08 within 128 cycles.
 Requested convergence on MAX density matrix=1.00D-06.
 Requested convergence on             energy=1.00D-06.
 No special actions if energy rises.
 FoFCou: FMM=F IPFlag=           0 FMFlag=           0 FMFlg1=           0
         NFxFlg=           0 DoJE=F BraDBF=F KetDBF=F FulRan=T
         wScrn=  0.000000 ICntrl=     600 IOpCl=  0 I1Cent=           0 NGrid=           0
         NMat0=    1 NMatS0=   6670 NMatT0=    0 NMatD0=    1 NMtDS0=    0 NMtDT0=    0
 Petite list used in FoFCou.

 Cycle   1  Pass 1  IDiag  1:
 E= -321.565980101529    
 DIIS: error= 1.51D-03 at cycle   1 NSaved=   1.
 NSaved= 1 IEnMin= 1 EnMin= -321.565980101529     IErMin= 1 ErrMin= 1.51D-03
 ErrMax= 1.51D-03  0.00D+00 EMaxC= 1.00D-01 BMatC= 7.34D-04 BMatP= 7.34D-04
 IDIUse=3 WtCom= 9.85D-01 WtEn= 1.51D-02
 Coeff-Com:  0.100D+01
 Coeff-En:   0.100D+01
 Coeff:      0.100D+01
 Gap=     1.047 Goal=   None    Shift=    0.000
 GapD=    1.047 DampG=2.000 DampE=1.000 DampFc=2.0000 IDamp=-1.
 RMSDP=3.42D-04 MaxDP=4.64D-03              OVMax= 8.69D-03

 Cycle   2  Pass 1  IDiag  1:
 E= -321.566898333462     Delta-E=       -0.000918231933 Rises=F Damp=F
 DIIS: error= 6.79D-04 at cycle   2 NSaved=   2.
 NSaved= 2 IEnMin= 2 EnMin= -321.566898333462     IErMin= 2 ErrMin= 6.79D-04
 ErrMax= 6.79D-04  0.00D+00 EMaxC= 1.00D-01 BMatC= 6.68D-05 BMatP= 7.34D-04
 IDIUse=3 WtCom= 9.93D-01 WtEn= 6.79D-03
 Coeff-Com:  0.407D-01 0.959D+00
 Coeff-En:   0.000D+00 0.100D+01
 Coeff:      0.405D-01 0.960D+00
 Gap=     0.416 Goal=   None    Shift=    0.000
 RMSDP=1.06D-04 MaxDP=1.97D-03 DE=-9.18D-04 OVMax= 3.61D-03

 Cycle   3  Pass 1  IDiag  1:
 E= -321.566993524964     Delta-E=       -0.000095191502 Rises=F Damp=F
 DIIS: error= 2.95D-04 at cycle   3 NSaved=   3.
 NSaved= 3 IEnMin= 3 EnMin= -321.566993524964     IErMin= 3 ErrMin= 2.95D-04
 ErrMax= 2.95D-04  0.00D+00 EMaxC= 1.00D-01 BMatC= 1.08D-05 BMatP= 6.68D-05
 IDIUse=3 WtCom= 9.97D-01 WtEn= 2.95D-03
 Coeff-Com: -0.700D-01 0.134D+00 0.936D+00
 Coeff-En:   0.000D+00 0.000D+00 0.100D+01
 Coeff:     -0.698D-01 0.134D+00 0.936D+00
 Gap=     0.417 Goal=   None    Shift=    0.000
 RMSDP=4.85D-05 MaxDP=9.76D-04 DE=-9.52D-05 OVMax= 2.91D-03

 Cycle   4  Pass 1  IDiag  1:
 E= -321.567018076200     Delta-E=       -0.000024551236 Rises=F Damp=F
 DIIS: error= 1.80D-04 at cycle   4 NSaved=   4.
 NSaved= 4 IEnMin= 4 EnMin= -321.567018076200     IErMin= 4 ErrMin= 1.80D-04
 ErrMax= 1.80D-04  0.00D+00 EMaxC= 1.00D-01 BMatC= 2.48D-06 BMatP= 1.08D-05
 IDIUse=3 WtCom= 9.98D-01 WtEn= 1.80D-03
 Coeff-Com: -0.138D-01-0.712D-01 0.205D+00 0.880D+00
 Coeff-En:   0.000D+00 0.000D+00 0.000D+00 0.100D+01
 Coeff:     -0.138D-01-0.711D-01 0.204D+00 0.881D+00
 Gap=     0.417 Goal=   None    Shift=    0.000
 RMSDP=2.37D-05 MaxDP=3.75D-04 DE=-2.46D-05 OVMax= 1.36D-03

 Cycle   5  Pass 1  IDiag  1:
 E= -321.567024212117     Delta-E=       -0.000006135916 Rises=F Damp=F
 DIIS: error= 8.81D-05 at cycle   5 NSaved=   5.
 NSaved= 5 IEnMin= 5 EnMin= -321.567024212117     IErMin= 5 ErrMin= 8.81D-05
 ErrMax= 8.81D-05  0.00D+00 EMaxC= 1.00D-01 BMatC= 4.32D-07 BMatP= 2.48D-06
 IDIUse=1 WtCom= 1.00D+00 WtEn= 0.00D+00
 Coeff-Com:  0.148D-01-0.395D-01-0.159D+00-0.770D-01 0.126D+01
 Coeff:      0.148D-01-0.395D-01-0.159D+00-0.770D-01 0.126D+01
 Gap=     0.417 Goal=   None    Shift=    0.000
 RMSDP=2.00D-05 MaxDP=3.23D-04 DE=-6.14D-06 OVMax= 1.40D-03

 Cycle   6  Pass 1  IDiag  1:
 E= -321.567026709220     Delta-E=       -0.000002497103 Rises=F Damp=F
 DIIS: error= 3.25D-05 at cycle   6 NSaved=   6.
 NSaved= 6 IEnMin= 6 EnMin= -321.567026709220     IErMin= 6 ErrMin= 3.25D-05
 ErrMax= 3.25D-05  0.00D+00 EMaxC= 1.00D-01 BMatC= 1.07D-07 BMatP= 4.32D-07
 IDIUse=1 WtCom= 1.00D+00 WtEn= 0.00D+00
 Coeff-Com:  0.367D-02 0.101D-01-0.386D-01-0.241D+00 0.149D+00 0.112D+01
 Coeff:      0.367D-02 0.101D-01-0.386D-01-0.241D+00 0.149D+00 0.112D+01
 Gap=     0.417 Goal=   None    Shift=    0.000
 RMSDP=1.02D-05 MaxDP=1.42D-04 DE=-2.50D-06 OVMax= 6.50D-04

 Cycle   7  Pass 1  IDiag  1:
 E= -321.567027132242     Delta-E=       -0.000000423022 Rises=F Damp=F
 DIIS: error= 8.04D-06 at cycle   7 NSaved=   7.
 NSaved= 7 IEnMin= 7 EnMin= -321.567027132242     IErMin= 7 ErrMin= 8.04D-06
 ErrMax= 8.04D-06  0.00D+00 EMaxC= 1.00D-01 BMatC= 1.09D-08 BMatP= 1.07D-07
 IDIUse=1 WtCom= 1.00D+00 WtEn= 0.00D+00
 Coeff-Com: -0.151D-02 0.617D-02 0.211D-01-0.311D-01-0.138D+00 0.137D+00
 Coeff-Com:  0.101D+01
 Coeff:     -0.151D-02 0.617D-02 0.211D-01-0.311D-01-0.138D+00 0.137D+00
 Coeff:      0.101D+01
 Gap=     0.417 Goal=   None    Shift=    0.000
 RMSDP=2.84D-06 MaxDP=4.13D-05 DE=-4.23D-07 OVMax= 1.56D-04

 Cycle   8  Pass 1  IDiag  1:
 E= -321.567027164449     Delta-E=       -0.000000032207 Rises=F Damp=F
 DIIS: error= 4.90D-06 at cycle   8 NSaved=   8.
 NSaved= 8 IEnMin= 8 EnMin= -321.567027164449     IErMin= 8 ErrMin= 4.90D-06
 ErrMax= 4.90D-06  0.00D+00 EMaxC= 1.00D-01 BMatC= 1.26D-09 BMatP= 1.09D-08
 IDIUse=1 WtCom= 1.00D+00 WtEn= 0.00D+00
 Coeff-Com: -0.758D-03-0.607D-03 0.101D-01 0.304D-01-0.379D-01-0.153D+00
 Coeff-Com:  0.128D+00 0.102D+01
 Coeff:     -0.758D-03-0.607D-03 0.101D-01 0.304D-01-0.379D-01-0.153D+00
 Coeff:      0.128D+00 0.102D+01
 Gap=     0.417 Goal=   None    Shift=    0.000
 RMSDP=1.03D-06 MaxDP=1.89D-05 DE=-3.22D-08 OVMax= 4.66D-05

 Cycle   9  Pass 1  IDiag  1:
 E= -321.567027168195     Delta-E=       -0.000000003747 Rises=F Damp=F
 DIIS: error= 1.09D-06 at cycle   9 NSaved=   9.
 NSaved= 9 IEnMin= 9 EnMin= -321.567027168195     IErMin= 9 ErrMin= 1.09D-06
 ErrMax= 1.09D-06  0.00D+00 EMaxC= 1.00D-01 BMatC= 1.36D-10 BMatP= 1.26D-09
 IDIUse=1 WtCom= 1.00D+00 WtEn= 0.00D+00
 Coeff-Com:  0.287D-03-0.638D-03-0.367D-02-0.280D-02 0.187D-01 0.202D-01
 Coeff-Com: -0.138D+00-0.152D+00 0.126D+01
 Coeff:      0.287D-03-0.638D-03-0.367D-02-0.280D-02 0.187D-01 0.202D-01
 Coeff:     -0.138D+00-0.152D+00 0.126D+01
 Gap=     0.417 Goal=   None    Shift=    0.000
 RMSDP=2.98D-07 MaxDP=5.09D-06 DE=-3.75D-09 OVMax= 1.28D-05

 Cycle  10  Pass 1  IDiag  1:
 E= -321.567027168639     Delta-E=       -0.000000000443 Rises=F Damp=F
 DIIS: error= 3.98D-07 at cycle  10 NSaved=  10.
 NSaved=10 IEnMin=10 EnMin= -321.567027168639     IErMin=10 ErrMin= 3.98D-07
 ErrMax= 3.98D-07  0.00D+00 EMaxC= 1.00D-01 BMatC= 1.61D-11 BMatP= 1.36D-10
 IDIUse=1 WtCom= 1.00D+00 WtEn= 0.00D+00
 Coeff-Com:  0.106D-03-0.532D-04-0.143D-02-0.285D-02 0.539D-02 0.178D-01
 Coeff-Com: -0.355D-01-0.106D+00 0.182D+00 0.940D+00
 Coeff:      0.106D-03-0.532D-04-0.143D-02-0.285D-02 0.539D-02 0.178D-01
 Coeff:     -0.355D-01-0.106D+00 0.182D+00 0.940D+00
 Gap=     0.417 Goal=   None    Shift=    0.000
 RMSDP=7.67D-08 MaxDP=1.67D-06 DE=-4.43D-10 OVMax= 4.51D-06

 Cycle  11  Pass 1  IDiag  1:
 E= -321.567027168689     Delta-E=       -0.000000000050 Rises=F Damp=F
 DIIS: error= 1.92D-07 at cycle  11 NSaved=  11.
 NSaved=11 IEnMin=11 EnMin= -321.567027168689     IErMin=11 ErrMin= 1.92D-07
 ErrMax= 1.92D-07  0.00D+00 EMaxC= 1.00D-01 BMatC= 3.69D-12 BMatP= 1.61D-11
 IDIUse=1 WtCom= 1.00D+00 WtEn= 0.00D+00
 Coeff-Com: -0.747D-04 0.142D-03 0.965D-03 0.113D-02-0.508D-02-0.550D-02
 Coeff-Com:  0.333D-01 0.501D-01-0.315D+00-0.254D-01 0.127D+01
 Coeff:     -0.747D-04 0.142D-03 0.965D-03 0.113D-02-0.508D-02-0.550D-02
 Coeff:      0.333D-01 0.501D-01-0.315D+00-0.254D-01 0.127D+01
 Gap=     0.417 Goal=   None    Shift=    0.000
 RMSDP=5.18D-08 MaxDP=9.01D-07 DE=-5.02D-11 OVMax= 2.56D-06

 Cycle  12  Pass 1  IDiag  1:
 E= -321.567027168705     Delta-E=       -0.000000000016 Rises=F Damp=F
 DIIS: error= 5.10D-08 at cycle  12 NSaved=  12.
 NSaved=12 IEnMin=12 EnMin= -321.567027168705     IErMin=12 ErrMin= 5.10D-08
 ErrMax= 5.10D-08  0.00D+00 EMaxC= 1.00D-01 BMatC= 3.10D-13 BMatP= 3.69D-12
 IDIUse=1 WtCom= 1.00D+00 WtEn= 0.00D+00
 Coeff-Com: -0.119D-04 0.703D-05 0.147D-03 0.324D-03-0.686D-03-0.191D-02
 Coeff-Com:  0.294D-02 0.103D-01-0.212D-01-0.824D-01-0.958D-01 0.119D+01
 Coeff:     -0.119D-04 0.703D-05 0.147D-03 0.324D-03-0.686D-03-0.191D-02
 Coeff:      0.294D-02 0.103D-01-0.212D-01-0.824D-01-0.958D-01 0.119D+01
 Gap=     0.417 Goal=   None    Shift=    0.000
 RMSDP=1.68D-08 MaxDP=2.68D-07 DE=-1.59D-11 OVMax= 8.93D-07

 Cycle  13  Pass 1  IDiag  1:
 E= -321.567027168706     Delta-E=       -0.000000000001 Rises=F Damp=F
 DIIS: error= 1.75D-08 at cycle  13 NSaved=  13.
 NSaved=13 IEnMin=13 EnMin= -321.567027168706     IErMin=13 ErrMin= 1.75D-08
 ErrMax= 1.75D-08  0.00D+00 EMaxC= 1.00D-01 BMatC= 3.75D-14 BMatP= 3.10D-13
 IDIUse=1 WtCom= 1.00D+00 WtEn= 0.00D+00
 Coeff-Com:  0.691D-05-0.162D-04-0.858D-04-0.596D-04 0.478D-03 0.378D-03
 Coeff-Com: -0.324D-02-0.328D-02 0.328D-01-0.163D-02-0.169D+00 0.240D+00
 Coeff-Com:  0.903D+00
 Coeff:      0.691D-05-0.162D-04-0.858D-04-0.596D-04 0.478D-03 0.378D-03
 Coeff:     -0.324D-02-0.328D-02 0.328D-01-0.163D-02-0.169D+00 0.240D+00
 Coeff:      0.903D+00
 Gap=     0.417 Goal=   None    Shift=    0.000
 RMSDP=4.75D-09 MaxDP=1.01D-07 DE=-1.14D-12 OVMax= 1.10D-07

 SCF Done:  E(RHF) =  -321.567027169     A.U. after   13 cycles
            NFock= 13  Conv=0.48D-08     -V/T= 2.0013
 KE= 3.211630917813D+02 PE=-1.308892491617D+03 EE= 3.880872843669D+02
 Leave Link  502 at Fri Sep  3 00:21:40 2021, MaxMem=  2415919104 cpu:         5.9
 (Enter /gpfs/share/home/1801110325/software/g09e01/l701.exe)
 Compute integral first derivatives.
 ... and contract with generalized density number  0.
 Leave Link  701 at Fri Sep  3 00:21:40 2021, MaxMem=  2415919104 cpu:         0.5
 (Enter /gpfs/share/home/1801110325/software/g09e01/l702.exe)
 L702 exits ... SP integral derivatives will be done elsewhere.
 Leave Link  702 at Fri Sep  3 00:21:40 2021, MaxMem=  2415919104 cpu:         0.1
 (Enter /gpfs/share/home/1801110325/software/g09e01/l703.exe)
 Compute integral first derivatives, UseDBF=F ICtDFT=           0.
 Integral derivatives from FoFJK, PRISM(SPDF).
 Calling FoFJK, ICntrl=      2127 FMM=F ISym2X=1 I1Cent= 0 IOpClX= 0 NMat=1 NMatS=1 NMatT=0.
 FoFJK:  IHMeth= 1 ICntrl=    2127 DoSepK=F KAlg= 0 I1Cent=   0 FoldK=F
 IRaf=         0 NMat=   1 IRICut=       1 DoRegI=T DoRafI=F ISym2E= 1.
 FoFCou: FMM=F IPFlag=           0 FMFlag=      100000 FMFlg1=         800
         NFxFlg=           0 DoJE=F BraDBF=F KetDBF=F FulRan=T
         wScrn=  0.000000 ICntrl=    2127 IOpCl=  0 I1Cent=           0 NGrid=           0
         NMat0=    1 NMatS0=      1 NMatT0=    0 NMatD0=    1 NMtDS0=    0 NMtDT0=    0
 Petite list used in FoFCou.
 Leave Link  703 at Fri Sep  3 00:21:40 2021, MaxMem=  2415919104 cpu:         2.8
 (Enter /gpfs/share/home/1801110325/software/g09e01/l716.exe)
 Dipole        =-4.65943401D-01-1.75451585D+00-9.11698057D-32
 ***** Axes restored to original set *****
 -------------------------------------------------------------------
 Center     Atomic                   Forces (Hartrees/Bohr)
 Number     Number              X              Y              Z
 -------------------------------------------------------------------
      1        8           0.002579913    0.002646905    0.000000000
      2        7           0.001772029    0.003062022   -0.000000000
      3        6          -0.008840938    0.002529799   -0.000000000
      4        6           0.004185772   -0.003812855    0.000000000
      5        6           0.001365797   -0.004570490    0.000000000
      6        6           0.004526686    0.003117610    0.000000000
      7        6          -0.005187384   -0.002061421   -0.000000000
      8        1          -0.000939333    0.000355432   -0.000000000
      9        1           0.000274260    0.000684462   -0.000000000
     10        1          -0.001039768   -0.000477488   -0.000000000
     11        1           0.000603922   -0.001058461    0.000000000
     12        1           0.000699043   -0.000415515    0.000000000
 -------------------------------------------------------------------
 Cartesian Forces:  Max     0.008840938 RMS     0.002538209
 Leave Link  716 at Fri Sep  3 00:21:41 2021, MaxMem=  2415919104 cpu:         0.1
 (Enter /gpfs/share/home/1801110325/software/g09e01/l103.exe)

 GradGradGradGradGradGradGradGradGradGradGradGradGradGradGradGradGradGrad
 Berny optimization.
 Using GEDIIS/GDIIS optimizer.
 FormGI is forming the generalized inverse of G from B-inverse, IUseBI=4.
 Internal  Forces:  Max     0.006312478 RMS     0.001536518
 Search for a local minimum.
 Step number   2 out of a maximum of   64
 All quantities printed in internal units (Hartrees-Bohrs-Radians)
 RMS Force = .15365D-02 SwitMx=.10000D-02 MixMth= 1
 Mixed Optimization -- RFO/linear search
 Update second derivatives using D2CorX and points    1    2
 DE= -2.45D-03 DEPred=-2.53D-03 R= 9.72D-01
 TightC=F SS=  1.41D+00  RLast= 9.73D-02 DXNew= 5.0454D-01 2.9192D-01
 Trust test= 9.72D-01 RLast= 9.73D-02 DXMaxT set to 3.00D-01
 ITU=  1  0
 Use linear search instead of GDIIS.
     Eigenvalues ---    0.01517   0.01694   0.01897   0.02003   0.02106
     Eigenvalues ---    0.02162   0.02278   0.02384   0.02461   0.15977
     Eigenvalues ---    0.16000   0.16000   0.16000   0.16029   0.21917
     Eigenvalues ---    0.22065   0.23551   0.24653   0.35032   0.35610
     Eigenvalues ---    0.35869   0.36016   0.37224   0.39068   0.44243
     Eigenvalues ---    0.46371   0.47926   0.51298   0.56851   0.97234
 RFO step:  Lambda=-3.08006043D-04 EMin= 1.51657701D-02
 Quartic linear search produced a step of -0.03719.
 Iteration  1 RMS(Cart)=  0.00419116 RMS(Int)=  0.00002204
 Iteration  2 RMS(Cart)=  0.00002187 RMS(Int)=  0.00000098
 Iteration  3 RMS(Cart)=  0.00000000 RMS(Int)=  0.00000098
 ITry= 1 IFail=0 DXMaxC= 1.61D-02 DCOld= 1.00D+10 DXMaxT= 3.00D-01 DXLimC= 3.00D+00 Rises=F
 ClnCor:  largest displacement from symmetrization is 6.21D-12 for atom    11.
 Variable       Old X    -DE/DX   Delta X   Delta X   Delta X     New X
                                 (Linear)    (Quad)   (Total)
    R1        2.27288   0.00234   0.00157  -0.00183  -0.00025   2.27263
    R2        2.61919   0.00041   0.00171  -0.00372  -0.00201   2.61717
    R3        2.56025   0.00531   0.00031   0.00883   0.00914   2.56939
    R4        1.88232   0.00099   0.00104  -0.00076   0.00028   1.88260
    R5        2.73276   0.00631  -0.00003   0.01572   0.01569   2.74845
    R6        2.54141   0.00017   0.00125  -0.00317  -0.00192   2.53950
    R7        2.02541   0.00060   0.00064  -0.00015   0.00049   2.02590
    R8        2.53553  -0.00012   0.00127  -0.00366  -0.00240   2.53313
    R9        2.02513   0.00114   0.00068   0.00119   0.00187   2.02700
   R10        2.70092   0.00473  -0.00058   0.01229   0.01171   2.71262
   R11        2.03057   0.00104   0.00066   0.00097   0.00163   2.03221
   R12        2.02444   0.00042   0.00057  -0.00043   0.00013   2.02457
    A1        2.18485   0.00031   0.00025   0.00083   0.00108   2.18593
    A2        1.99767  -0.00001  -0.00007   0.00031   0.00024   1.99791
    A3        2.10066  -0.00030  -0.00018  -0.00114  -0.00132   2.09934
    A4        2.08580   0.00384   0.00019   0.01422   0.01441   2.10021
    A5        2.21226  -0.00266   0.00037  -0.01129  -0.01092   2.20134
    A6        1.98513  -0.00118  -0.00056  -0.00293  -0.00349   1.98164
    A7        2.11062   0.00091   0.00049   0.00235   0.00284   2.11347
    A8        2.03855  -0.00089  -0.00029  -0.00363  -0.00392   2.03463
    A9        2.13401  -0.00003  -0.00020   0.00128   0.00108   2.13509
   A10        2.10967   0.00033  -0.00035   0.00245   0.00210   2.11177
   A11        2.02279  -0.00020   0.00015  -0.00140  -0.00125   2.02154
   A12        2.15073  -0.00012   0.00020  -0.00105  -0.00085   2.14988
   A13        2.12632  -0.00051  -0.00016  -0.00217  -0.00233   2.12398
   A14        2.07887   0.00091   0.00022   0.00459   0.00481   2.08368
   A15        2.07800  -0.00039  -0.00006  -0.00242  -0.00248   2.07552
   A16        2.04978   0.00014   0.00032  -0.00053  -0.00021   2.04958
   A17        2.10671   0.00063  -0.00021   0.00464   0.00442   2.11113
   A18        2.12670  -0.00077  -0.00011  -0.00411  -0.00422   2.12248
    D1        3.14159  -0.00000   0.00000  -0.00000   0.00000   3.14159
    D2        0.00000   0.00000   0.00000   0.00000   0.00000   0.00000
    D3        0.00000   0.00000   0.00000   0.00000  -0.00000   0.00000
    D4        3.14159   0.00000   0.00000   0.00000   0.00000   3.14159
    D5       -0.00000   0.00000   0.00000   0.00000   0.00000   0.00000
    D6        3.14159  -0.00000   0.00000   0.00000   0.00000   3.14159
    D7        3.14159  -0.00000   0.00000  -0.00000   0.00000   3.14159
    D8       -0.00000  -0.00000   0.00000  -0.00000   0.00000   0.00000
    D9        3.14159  -0.00000   0.00000   0.00000   0.00000   3.14159
   D10        0.00000  -0.00000   0.00000   0.00000   0.00000   0.00000
   D11       -0.00000  -0.00000   0.00000  -0.00000   0.00000   0.00000
   D12        3.14159   0.00000   0.00000  -0.00000   0.00000   3.14159
   D13        0.00000  -0.00000   0.00000  -0.00000  -0.00000   0.00000
   D14        3.14159   0.00000   0.00000  -0.00000   0.00000   3.14159
   D15        3.14159  -0.00000   0.00000  -0.00000   0.00000   3.14159
   D16        0.00000  -0.00000   0.00000  -0.00000   0.00000   0.00000
   D17        0.00000   0.00000   0.00000  -0.00000  -0.00000   0.00000
   D18        3.14159  -0.00000   0.00000   0.00000   0.00000   3.14159
   D19        3.14159  -0.00000   0.00000  -0.00000   0.00000   3.14159
   D20        0.00000   0.00000   0.00000   0.00000   0.00000   0.00000
   D21        0.00000   0.00000   0.00000   0.00000   0.00000   0.00000
   D22        3.14159   0.00000   0.00000  -0.00000   0.00000   3.14159
   D23        3.14159   0.00000   0.00000   0.00000   0.00000   3.14159
   D24        0.00000   0.00000   0.00000   0.00000  -0.00000   0.00000
         Item               Value     Threshold  Converged?
 Maximum Force            0.006312     0.000450     NO 
 RMS     Force            0.001537     0.000300     NO 
 Maximum Displacement     0.016139     0.001800     NO 
 RMS     Displacement     0.004183     0.001200     NO 
 Predicted change in Energy=-1.574992D-04
 Lowest energy point so far.  Saving SCF results.
 GradGradGradGradGradGradGradGradGradGradGradGradGradGradGradGradGradGrad

 Leave Link  103 at Fri Sep  3 00:21:41 2021, MaxMem=  2415919104 cpu:         0.1
 (Enter /gpfs/share/home/1801110325/software/g09e01/l202.exe)
                          Input orientation:                          
 ---------------------------------------------------------------------
 Center     Atomic      Atomic             Coordinates (Angstroms)
 Number     Number       Type             X           Y           Z
 ---------------------------------------------------------------------
      1          8           0       -0.132344    2.250646   -0.000000
      2          7           0       -1.130403    0.238044   -0.000000
      3          6           0       -0.011430    1.054118   -0.000000
      4          6           0        1.243577    0.319074    0.000000
      5          6           0       -1.110027   -1.121468   -0.000000
      6          6           0        1.260836   -1.024659    0.000000
      7          6           0        0.049256   -1.794475    0.000000
      8          1           0       -1.998119    0.727468   -0.000000
      9          1           0        2.141993    0.904016    0.000000
     10          1           0       -2.068427   -1.603163   -0.000000
     11          1           0        2.204564   -1.540273    0.000000
     12          1           0        0.064627   -2.865720    0.000000
 ---------------------------------------------------------------------
                    Distance matrix (angstroms):
                    1          2          3          4          5
     1  O    0.000000
     2  N    2.246484   0.000000
     3  C    1.202622   1.384948   0.000000
     4  C    2.371525   2.375363   1.454418   0.000000
     5  C    3.510985   1.359664   2.437230   2.759458   0.000000
     6  C    3.559294   2.704153   2.437206   1.343843   2.372838
     7  C    4.049195   2.350048   2.849239   2.427651   1.340475
     8  H    2.408566   0.996227   2.013365   3.267321   2.051164
     9  H    2.643108   3.339476   2.158647   1.072058   3.831216
    10  H    4.312802   2.066381   3.360414   3.829408   1.072643
    11  H    4.453336   3.779473   3.411963   2.093004   3.340944
    12  H    5.120156   3.325875   3.920576   3.396003   2.102909
                    6          7          8          9         10
     6  C    0.000000
     7  C    1.435459   0.000000
     8  H    3.700100   3.248375   0.000000
     9  H    2.120430   3.414879   4.143875   0.000000
    10  H    3.379151   2.126307   2.331691   4.900366   0.000000
    11  H    1.075398   2.170247   4.775479   2.445089   4.273454
    12  H    2.195546   1.071356   4.143178   4.304226   2.478703
                   11         12
    11  H    0.000000
    12  H    2.517170   0.000000
 Stoichiometry    C5H5NO
 Framework group  CS[SG(C5H5NO)]
 Deg. of freedom    21
 Full point group                 CS      NOp   2
 RotChk:  IX=0 Diff= 8.15D-03
 Largest Abelian subgroup         CS      NOp   2
 Largest concise Abelian subgroup C1      NOp   1
                         Standard orientation:                         
 ---------------------------------------------------------------------
 Center     Atomic      Atomic             Coordinates (Angstroms)
 Number     Number       Type             X           Y           Z
 ---------------------------------------------------------------------
      1          8           0       -0.108725    2.254083   -0.000000
      2          7           0       -1.127225    0.251747   -0.000000
      3          6           0        0.000000    1.056386   -0.000000
      4          6           0        1.247457    0.308601    0.000000
      5          6           0       -1.120692   -1.107901    0.000000
      6          6           0        1.251033   -1.035238    0.000000
      7          6           0        0.031677   -1.792677    0.000000
      8          1           0       -1.989913    0.749982   -0.000000
      9          1           0        2.151782    0.884365    0.000000
     10          1           0       -2.083948   -1.579813    0.000000
     11          1           0        2.189462   -1.560434    0.000000
     12          1           0        0.036140   -2.864023    0.000000
 ---------------------------------------------------------------------
 Rotational constants (GHZ):      5.7319737      2.8479106      1.9026071
 Leave Link  202 at Fri Sep  3 00:21:41 2021, MaxMem=  2415919104 cpu:         0.1
 (Enter /gpfs/share/home/1801110325/software/g09e01/l301.exe)
 Standard basis: GTBas1 (6D, 7F)
 Ernie: Thresh=  0.10000D-02 Tol=  0.10000D-05 Strict=F.
 There are    87 symmetry adapted cartesian basis functions of A'  symmetry.
 There are    28 symmetry adapted cartesian basis functions of A"  symmetry.
 There are    87 symmetry adapted basis functions of A'  symmetry.
 There are    28 symmetry adapted basis functions of A"  symmetry.
   115 basis functions,   216 primitive gaussians,   115 cartesian basis functions
    25 alpha electrons       25 beta electrons
       nuclear repulsion energy       277.6352936927 Hartrees.
 IExCor=    0 DFT=F Ex=HF Corr=None ExCW=0 ScaHFX=  1.000000
 ScaDFX=  1.000000  1.000000  1.000000  1.000000 ScalE2=  1.000000  1.000000
 IRadAn=      0 IRanWt=     -1 IRanGd=            0 ICorTp=0 IEmpDi=  4
 NAtoms=   12 NActive=   12 NUniq=   12 SFac= 1.00D+00 NAtFMM=   60 NAOKFM=F Big=F
 Integral buffers will be    131072 words long.
 Raffenetti 1 integral format.
 Two-electron integral symmetry is turned on.
 Leave Link  301 at Fri Sep  3 00:21:41 2021, MaxMem=  2415919104 cpu:         0.2
 (Enter /gpfs/share/home/1801110325/software/g09e01/l302.exe)
[...]
                 (A') (A') (A") (A') (A") (A") (A') (A") (A') (A")
                 (A') (A') (A') (A") (A') (A') (A") (A') (A') (A")
                 (A') (A') (A') (A") (A') (A') (A") (A') (A') (A')
                 (A') (A") (A') (A") (A') (A') (A') (A') (A') (A')
                 (A') (A') (A") (A') (A') (A') (A') (A") (A') (A')
                 (A") (A') (A') (A") (A') (A') (A") (A') (A") (A")
                 (A') (A") (A") (A') (A') (A") (A') (A") (A") (A")
                 (A') (A') (A") (A') (A') (A") (A') (A") (A') (A")
                 (A") (A') (A') (A") (A') (A') (A') (A") (A') (A")
                 (A') (A') (A") (A') (A") (A') (A') (A") (A') (A')
                 (A') (A') (A") (A') (A") (A') (A") (A') (A') (A")
                 (A') (A') (A") (A") (A') (A') (A') (A') (A") (A')
                 (A') (A") (A') (A') (A') (A") (A") (A') (A") (A')
                 (A') (A") (A') (A") (A') (A") (A') (A") (A') (A')
                 (A") (A') (A') (A') (A") (A') (A") (A') (A") (A')
                 (A") (A") (A') (A') (A') (A') (A') (A") (A') (A')
                 (A') (A') (A') (A') (A') (A') (A") (A') (A') (A")
                 (A') (A') (A') (A") (A') (A') (A') (A') (A') (A')
                 (A') (A") (A") (A") (A") (A") (A') (A') (A') (A')
                 (A') (A') (A') (A') (A') (A') (A') (A") (A') (A')
                 (A") (A") (A') (A') (A') (A") (A") (A') (A") (A")
                 (A') (A") (A") (A') (A') (A") (A") (A') (A") (A")
                 (A') (A') (A') (A') (A') (A') (A') (A') (A') (A')
                 (A") (A') (A") (A') (A') (A") (A') (A') (A')
 The electronic state is 1-A'.
 Alpha  occ. eigenvalues --  -20.51078 -15.62692 -11.35566 -11.31568 -11.27472
 Alpha  occ. eigenvalues --  -11.24438 -11.24114  -1.37333  -1.27597  -1.11027
 Alpha  occ. eigenvalues --   -1.03363  -0.88990  -0.86397  -0.75760  -0.69730
 Alpha  occ. eigenvalues --   -0.67981  -0.64069  -0.61371  -0.60698  -0.56090
 Alpha  occ. eigenvalues --   -0.54083  -0.48652  -0.42728  -0.42697  -0.31690
 Alpha virt. eigenvalues --    0.02987   0.04153   0.05236   0.07020   0.07119
 Alpha virt. eigenvalues --    0.07828   0.10507   0.11490   0.12748   0.13021
 Alpha virt. eigenvalues --    0.14030   0.14559   0.15042   0.16071   0.17112
 Alpha virt. eigenvalues --    0.17529   0.18872   0.19513   0.19609   0.19643
 Alpha virt. eigenvalues --    0.20376   0.20695   0.21337   0.22804   0.25073
 Alpha virt. eigenvalues --    0.26455   0.26817   0.28407   0.29124   0.31706
 Alpha virt. eigenvalues --    0.32627   0.33086   0.34125   0.38295   0.39261
 Alpha virt. eigenvalues --    0.39289   0.39940   0.40610   0.41890   0.42933
 Alpha virt. eigenvalues --    0.45389   0.46454   0.47744   0.51178   0.52048
 Alpha virt. eigenvalues --    0.56637   0.61572   0.62521   0.64023   0.67932
 Alpha virt. eigenvalues --    0.68535   0.68756   0.69250   0.71916   0.72755
 Alpha virt. eigenvalues --    0.74717   0.75610   0.78189   0.78732   0.79267
 Alpha virt. eigenvalues --    0.80111   0.81356   0.83103   0.84244   0.86089
 Alpha virt. eigenvalues --    0.87149   0.88503   0.89014   0.89568   0.90600
 Alpha virt. eigenvalues --    0.92055   0.93010   0.94966   0.96570   1.00122
 Alpha virt. eigenvalues --    1.00959   1.01062   1.03841   1.04508   1.07059
 Alpha virt. eigenvalues --    1.09929   1.14525   1.16279   1.18732   1.20178
 Alpha virt. eigenvalues --    1.23964   1.26435   1.28418   1.28668   1.29862
 Alpha virt. eigenvalues --    1.32482   1.35650   1.37404   1.39363   1.41781
 Alpha virt. eigenvalues --    1.45290   1.45691   1.47997   1.51137   1.52190
 Alpha virt. eigenvalues --    1.54379   1.54929   1.58171   1.58444   1.58851
 Alpha virt. eigenvalues --    1.60792   1.64922   1.65370   1.68262   1.72400
 Alpha virt. eigenvalues --    1.74962   1.78562   1.79643   1.84802   1.90987
 Alpha virt. eigenvalues --    1.92700   1.94181   1.98306   2.00470   2.07057
 Alpha virt. eigenvalues --    2.12907   2.15188   2.17219   2.22990   2.23918
 Alpha virt. eigenvalues --    2.31996   2.38553   2.39158   2.65098   2.80720
 Alpha virt. eigenvalues --    2.82244   2.82554   2.85036   2.90635   2.91624
 Alpha virt. eigenvalues --    2.94983   3.00394   3.01771   3.02752   3.05103
 Alpha virt. eigenvalues --    3.06448   3.08215   3.10572   3.11645   3.12699
 Alpha virt. eigenvalues --    3.14784   3.15293   3.16842   3.17464   3.20572
 Alpha virt. eigenvalues --    3.25738   3.27718   3.34507   3.35680   3.37244
 Alpha virt. eigenvalues --    3.39776   3.40993   3.42066   3.44601   3.46430
 Alpha virt. eigenvalues --    3.50420   3.51072   3.53517   3.57064   3.57731
 Alpha virt. eigenvalues --    3.58700   3.60840   3.61920   3.65147   3.67261
 Alpha virt. eigenvalues --    3.68053   3.70538   3.71301   3.71799   3.74724
 Alpha virt. eigenvalues --    3.77757   3.78427   3.81515   3.83045   3.87310
 Alpha virt. eigenvalues --    3.94373   3.95458   3.96502   3.98006   3.98952
 Alpha virt. eigenvalues --    4.01863   4.06754   4.09427   4.12975   4.14448
 Alpha virt. eigenvalues --    4.19416   4.19958   4.22084   4.26939   4.28995
 Alpha virt. eigenvalues --    4.30794   4.32032   4.36017   4.40838   4.44955
 Alpha virt. eigenvalues --    4.46877   4.47987   4.51175   4.56351   4.57695
 Alpha virt. eigenvalues --    4.62069   4.67382   4.74653   4.78874   4.79295
 Alpha virt. eigenvalues --    4.82344   4.83814   4.86967   4.87350   4.93042
 Alpha virt. eigenvalues --    4.96889   4.96979   5.05611   5.10599   5.15606
 Alpha virt. eigenvalues --    5.18033   5.25991   5.41164   5.42119   5.43681
 Alpha virt. eigenvalues --    5.49569   5.51607   5.55860   5.57312   5.57357
 Alpha virt. eigenvalues --    5.60728   5.65763   5.70627   5.80476   5.90068
 Alpha virt. eigenvalues --    5.98333   5.99815   6.01887   6.06211   6.14865
 Alpha virt. eigenvalues --    6.18238   6.21874   6.29204   6.36749   6.51515
 Alpha virt. eigenvalues --    6.53286   6.74437   6.80204   6.91012   7.43971
 Alpha virt. eigenvalues --    7.45672   7.55146   7.68131   7.82377   8.08396
 Alpha virt. eigenvalues --    8.24437  25.13299  25.41776  25.74355  25.85749
 Alpha virt. eigenvalues --   26.19100  28.28814  28.37442  28.41737  28.49879
 Alpha virt. eigenvalues --   28.66205  28.97700  29.09111  29.20367  29.27724
 Alpha virt. eigenvalues --   29.33787  29.39855  29.53839  29.59007  29.62037
 Alpha virt. eigenvalues --   29.88788  37.31068  38.72477  39.59452  39.72737
 Alpha virt. eigenvalues --   41.65173  41.66345  41.74605  41.84039  41.90960
 Alpha virt. eigenvalues --   42.03942  42.06794  42.07799  42.08952  42.09530
 Alpha virt. eigenvalues --   42.10000  42.11286  42.11939  42.13192  42.15112
 Alpha virt. eigenvalues --   42.16404  42.17503  42.18817  42.19063  42.20483
 Alpha virt. eigenvalues --   42.23394  42.25389  42.29262  42.30049  42.33255
 Alpha virt. eigenvalues --   42.36652  42.38011  42.40352  42.49059  42.53645
 Alpha virt. eigenvalues --   44.94130  44.96612  45.04525  45.14373  45.19211
 Alpha virt. eigenvalues --   47.27122  47.42459  48.17045  51.98563
          Condensed to atoms (all electrons):
               1          2          3          4          5          6
     1  O    8.357139  -0.056591   0.358048  -0.111746   0.022364  -0.036914
     2  N   -0.056591   6.687699   0.180144   0.173154   0.060836  -0.250424
     3  C    0.358048   0.180144   5.842983  -0.920596   0.206891   0.753938
     4  C   -0.111746   0.173154  -0.920596   6.645655  -0.473895  -0.485109
     5  C    0.022364   0.060836   0.206891  -0.473895   5.325003   0.368913
     6  C   -0.036914  -0.250424   0.753938  -0.485109   0.368913   5.501521
     7  C    0.000645   0.123794  -0.534448   0.775088   0.061097  -0.397898
     8  H    0.013758   0.431094  -0.043572  -0.011421  -0.038257   0.000204
     9  H   -0.000425   0.017792  -0.076900   0.468581  -0.029418  -0.061531
    10  H   -0.000710  -0.056597   0.024801  -0.035986   0.432660   0.045790
    11  H    0.000687  -0.004923   0.011857  -0.001570   0.007710   0.377330
    12  H   -0.000102   0.015597  -0.015307   0.021920  -0.031296  -0.011419
               7          8          9         10         11         12
     1  O    0.000645   0.013758  -0.000425  -0.000710   0.000687  -0.000102
     2  N    0.123794   0.431094   0.017792  -0.056597  -0.004923   0.015597
     3  C   -0.534448  -0.043572  -0.076900   0.024801   0.011857  -0.015307
     4  C    0.775088  -0.011421   0.468581  -0.035986  -0.001570   0.021920
     5  C    0.061097  -0.038257  -0.029418   0.432660   0.007710  -0.031296
     6  C   -0.397898   0.000204  -0.061531   0.045790   0.377330  -0.011419
     7  C    6.149651  -0.013090   0.053020  -0.047306  -0.045785   0.418988
     8  H   -0.013090   0.405444  -0.000464  -0.001733   0.000493   0.000054
     9  H    0.053020  -0.000464   0.459517  -0.000744  -0.008373   0.001582
    10  H   -0.047306  -0.001733  -0.000744   0.472695   0.001952  -0.010917
    11  H   -0.045785   0.000493  -0.008373   0.001952   0.462152  -0.003060
    12  H    0.418988   0.000054   0.001582  -0.010917  -0.003060   0.466027
 Mulliken charges:
               1
     1  O   -0.546154
     2  N   -0.321576
     3  C    0.212160
     4  C   -0.044077
     5  C    0.087391
     6  C    0.195600
     7  C   -0.543756
     8  H    0.257489
     9  H    0.177362
    10  H    0.176095
    11  H    0.201531
    12  H    0.147934
 Sum of Mulliken charges =  -0.00000
 Mulliken charges with hydrogens summed into heavy atoms:
               1
     1  O   -0.546154
     2  N   -0.064086
     3  C    0.212160
     4  C    0.133285
     5  C    0.263486
     6  C    0.397131
     7  C   -0.395823
 Electronic spatial extent (au):  <R**2>=            635.2751
 Charge=              0.0000 electrons
 Dipole moment (field-independent basis, Debye):
    X=             -1.1577    Y=             -4.8691    Z=             -0.0000  Tot=              5.0048
 Quadrupole moment (field-independent basis, Debye-Ang):
   XX=            -30.8972   YY=            -49.1920   ZZ=            -43.9841
   XY=              0.0731   XZ=              0.0000   YZ=             -0.0000
 Traceless Quadrupole moment (field-independent basis, Debye-Ang):
   XX=             10.4606   YY=             -7.8342   ZZ=             -2.6263
   XY=              0.0731   XZ=              0.0000   YZ=             -0.0000
 Octapole moment (field-independent basis, Debye-Ang**2):
  XXX=            -12.0993  YYY=            -34.3625  ZZZ=              0.0000  XYY=              0.5244
  XXY=             -0.2445  XXZ=              0.0000  XZZ=             -2.2386  YZZ=              5.6938
  YYZ=             -0.0000  XYZ=              0.0000
 Hexadecapole moment (field-independent basis, Debye-Ang**3):
 XXXX=           -231.9919 YYYY=           -558.1167 ZZZZ=            -49.1313 XXXY=              2.2854
 XXXZ=              0.0000 YYYX=              7.2335 YYYZ=             -0.0000 ZZZX=              0.0000
 ZZZY=             -0.0000 XXYY=           -115.1588 XXZZ=            -61.8560 YYZZ=            -99.7026
 XXYZ=             -0.0000 YYXZ=              0.0000 ZZXY=              0.9721
 N-N= 2.748120328052D+02 E-N=-1.302389308193D+03  KE= 3.211645809192D+02
 Symmetry A'   KE= 3.103174081863D+02
 Symmetry A"   KE= 1.084717273286D+01
 Leave Link  601 at Fri Sep  3 00:41:51 2021, MaxMem=  2415919104 cpu:         1.2
 (Enter /gpfs/share/home/1801110325/software/g09e01/l9999.exe)
 1\1\GINC-A5U23N11\SP\RMP2-Full\GTlarge\C5H5N1O1\1801110325\03-Sep-2021
 \0\\#P Geom=AllCheck Guess=TCheck SCRF=Check MP2=Full/GTLarge\\PY_G3\\
 0,1\O,0,-0.1349872752,2.2968179775,0.\N,0,-1.1325183025,0.2351376047,0
 .\C,0,-0.0030010497,1.0692528236,0.\C,0,1.2394661898,0.3248033946,0.\C
 ,0,-1.1233782373,-1.1300853454,0.\C,0,1.2647478928,-1.0423265124,0.\C,
 0,0.0630764364,-1.8027902731,0.\H,0,-2.0141282804,0.7415046115,0.\H,0,
 2.1512289368,0.9127215781,0.\H,0,-2.0934027901,-1.6166186413,0.\H,0,2.
 2219527962,-1.5587946046,0.\H,0,0.0750466831,-2.8860146132,0.\\Version
 =EM64L-G09RevE.01\State=1-A'\HF=-321.6721644\MP2=-323.1848235\RMSD=7.5
 62e-09\PG=CS [SG(C5H5N1O1)]\\@


 The mind is not a vessel to be filled but a fire to be kindled.
                                  -- Plutarch
 Diagonal vibrational polarizability:
        0.0000000       0.0000000       0.0000000

 Temperature=              298.150000 Pressure=                      1.000000
 E(ZPE)=                     0.090316 E(Thermal)=                    0.095730
 E(QCISD(T))=             -322.603536 E(Empiric)=                   -0.114948
 DE(Plus)=                  -0.023830 DE(2DF)=                      -0.236335
 E(Delta-G3)=               -0.408788 E(G3-Empiric)=                -0.114948
 G3(0 K)=                 -323.297121 G3 Energy=                  -323.291707
 G3 Enthalpy=             -323.290763 G3 Free Energy=             -323.326108
 1\1\GINC-A5U23N11\Mixed\G3\G3\C5H5N1O1\1801110325\03-Sep-2021\0\\#P Ge
 om=AllCheck Guess=TCheck SCRF=Check MP2=Full/GTLarge\\PY_G3\\0,1\O,0,-
 0.1349872752,2.2968179775,0.\N,0,-1.1325183025,0.2351376047,0.\C,0,-0.
 0030010497,1.0692528236,0.\C,0,1.2394661898,0.3248033946,0.\C,0,-1.123
 3782373,-1.1300853454,0.\C,0,1.2647478928,-1.0423265124,0.\C,0,0.06307
 64364,-1.8027902731,0.\H,0,-2.0141282804,0.7415046115,0.\H,0,2.1512289
 368,0.9127215781,0.\H,0,-2.0934027901,-1.6166186413,0.\H,0,2.221952796
 2,-1.5587946046,0.\H,0,0.0750466831,-2.8860146132,0.\\Version=EM64L-G0
 9RevE.01\State=1-A'\MP2/G3Bas1=-322.5287782\QCISD(T)/G3Bas1=-322.60353
 61\MP4/GTBas1=-322.6073717\MP2/GTBas2=-322.5518949\MP4/GTBas2=-322.631
 2015\MP2/GTBas3=-322.752919\MP4/GTBas3=-322.8437069\MP2/GTLarge=-323.1
 848235\G3=-323.2971211\FreqCoord=-0.2432683455,4.2543898936,0.,-2.1379
 263797,0.4539903599,0.,-0.0250457215,1.9914926978,0.,2.3519448334,0.60
 02013287,0.,-2.0978607086,-2.1215637218,0.,2.3880357448,-1.9366441406,
 0.,0.0917648701,-3.3902780069,0.,-3.7827785484,1.3728383825,0.,4.04491
 58018,1.7150413151,0.,-3.9114984644,-3.0281422905,0.,4.1687457245,-2.9
 17165364,0.,0.1244850675,-5.4155208745,0.\PG=CS [SG(C5H5N1O1)]\NImag=0
 \\0.11549983,-0.06933716,0.93898446,0.,0.,0.04210085,0.01404009,-0.053
 67115,0.,0.89354816,-0.08542314,-0.08768087,0.,-0.10715720,0.88194184,
 0.,0.,0.02433166,0.,0.,0.08401551,-0.12943039,0.08981589,0.,-0.2767165
 3,0.01193609,0.,0.66790148,0.08176953,-0.79363776,0.,-0.04107830,-0.18
 687796,0.,-0.09395496,1.14215784,0.,0.,-0.09158725,0.,0.,-0.07296724,0
 .,0.,0.24443750,0.00525049,0.02974291,0.,-0.03942010,-0.01298548,0.,-0
 .25372697,0.04907012,0.,0.73710082,0.06185454,-0.06161186,0.,-0.013813
 68,0.05742559,0.,0.02267073,-0.14234692,0.,0.08247620,0.93238567,0.,0.
 ,0.02576913,0.,0.,0.00898318,0.,0.,-0.09326794,0.,0.,0.13928979,-0.012
 71173,0.00017443,0.,-0.17771684,-0.02705352,0.,0.04594464,-0.03363200,
 0.,-0.01707209,0.02624067,0.,0.98678115,0.02148226,-0.00098338,0.,0.03
 646157,-0.35952932,0.,-0.10070939,-0.02875688,0.,0.02572825,-0.0460047
 7,0.,-0.03778516,0.76134620,0.,0.,0.00664786,0.,0.,-0.05191954,0.,0.,-
 0.00569318,0.,0.,0.00055650,0.,0.,0.16990626,-0.01828890,0.01368386,0.
 ,-0.00704183,-0.04395363,0.,0.05429938,0.03316777,0.,-0.16626055,0.034
 38271,0.,-0.06721130,0.02559996,0.,0.75173008,-0.00914776,0.01894254,0
 .,-0.00245285,-0.04663991,0.,0.05523744,-0.03387854,0.,-0.01812452,-0.
 54040679,0.,-0.02141685,0.06944184,0.,-0.06612089,0.89583025,0.,0.,0.0
 0464133,0.,0.,-0.00612770,0.,0.,-0.00084266,0.,0.,-0.06887824,0.,0.,0.
 00812898,0.,0.,0.17686715,0.01472020,-0.01407413,0.,0.01496900,0.08130
 640,0.,-0.06414563,0.00624552,0.,0.03516958,-0.06284633,0.,-0.43953073
 ,0.12355256,0.,-0.24803745,-0.04036667,0.,0.78586697,-0.00446939,-0.00
 730219,0.,0.03804758,-0.05210751,0.,0.01824335,0.00965127,0.,-0.037336
 68,-0.02231605,0.,0.18025843,-0.23649272,0.,-0.09940238,-0.19421915,0.
 ,-0.09708741,0.87296459,0.,0.,-0.00017646,0.,0.,0.01389807,0.,0.,-0.00
 730399,0.,0.,0.00938561,0.,0.,-0.07489408,0.,0.,-0.07410158,0.,0.,0.13
 508000,0.00609921,0.00057738,0.,-0.41825608,0.17498564,0.,-0.02564047,
 0.02341428,0.,-0.00422163,-0.00410327,0.,0.01034208,-0.00071140,0.,-0.
 00146801,-0.00258127,0.,0.00440806,-0.00334848,0.,0.42834557,0.0052621
 2,-0.00268713,0.,0.17621234,-0.18628014,0.,-0.02278609,0.02620870,0.,-
 0.00380038,-0.00393125,0.,0.03813698,-0.01125922,0.,-0.00020323,0.0004
 7303,0.,-0.00396099,-0.00698126,0.,-0.18852010,0.18325334,0.,0.,-0.006
 00486,0.,0.,-0.01705425,0.,0.,0.00432049,0.,0.,0.00530767,0.,0.,-0.006
 59743,0.,0.,-0.00063782,0.,0.,0.00409850,0.,0.,0.01768731,0.00383071,0
 .00238242,0.,-0.00626519,0.00323949,0.,-0.01829876,-0.02447024,0.,-0.2
 9681929,-0.14404661,0.,-0.00017825,0.00283258,0.,0.00828234,0.00319403
 ,0.,0.00220958,0.00113752,0.,-0.00112366,-0.00121799,0.,0.30698130,-0.
 00222879,0.00115913,0.,0.00501447,-0.00099175,0.,0.01610756,0.01381073
 ,0.,-0.14684126,-0.16313625,0.,0.00078025,-0.00174973,0.,-0.03229047,-
 0.01278727,0.,0.00234153,-0.00526658,0.,0.00098508,0.00083345,0.,0.157
 44695,0.16742771,0.,0.,-0.00217490,0.,0.,0.00446064,0.,0.,0.00293093,0
 .,0.,-0.04104687,0.,0.,-0.00054558,0.,0.,0.00500074,0.,0.,0.01137004,0
 .,0.,-0.00047600,0.,0.,0.02909139,0.00006405,-0.00017740,0.,0.00773545
 ,0.00297352,0.,0.00125550,0.00179634,0.,0.00068037,0.00032288,0.,-0.33
 130459,-0.12581131,0.,-0.00372726,0.00480963,0.,-0.01690828,-0.0172642
 3,0.,0.00098476,-0.00066099,0.,0.00002363,-0.00010205,0.,0.34137128,-0
 .00227294,-0.00313069,0.,-0.04162062,-0.02062752,0.,0.00794532,-0.0017
 3250,0.,-0.00021251,0.00029593,0.,-0.11754435,-0.13188223,0.,0.0033204
 9,-0.00246679,0.,0.01588544,0.01653151,0.,-0.00030876,0.00077589,0.,-0
 .00016514,0.00014914,0.,0.13457103,0.14069835,0.,0.,-0.00022927,0.,0.,
 0.00339992,0.,0.,0.00538844,0.,0.,-0.00025427,0.,0.,-0.04953306,0.,0.,
 0.01075357,0.,0.,0.00986314,0.,0.,-0.00214298,0.,0.,-0.00125976,0.,0.,
 0.03125997,0.00003547,0.00075119,0.,0.00122758,-0.00017919,0.,0.001058
 33,-0.00210876,0.,0.00538676,-0.00120151,0.,-0.00440999,-0.00497055,0.
 ,-0.31024848,0.12941681,0.,-0.01802329,0.01754887,0.,0.00008959,0.0000
 1843,0.,0.00107960,0.00031099,0.,-0.00109222,0.00094706,0.,0.32382547,
 0.00237840,-0.00165659,0.,0.00073651,0.00010027,0.,-0.00411650,-0.0056
 6387,0.,0.03534211,-0.01050820,0.,-0.00437813,-0.00245271,0.,0.1277850
 9,-0.14405998,0.,-0.01736051,0.01560841,0.,0.00002529,0.00007253,0.,-0
 .00055719,0.00116257,0.,-0.00095376,0.00069458,0.,-0.14003253,0.145966
 12,0.,0.,-0.00299493,0.,0.,-0.00083530,0.,0.,0.01523904,0.,0.,0.010808
 28,0.,0.,0.00398874,0.,0.,-0.05494858,0.,0.,0.00648180,0.,0.,-0.000667
 52,0.,0.,-0.00790988,0.,0.,-0.00058950,0.,0.,0.03330264,0.00089097,0.0
 0013177,0.,-0.00610371,0.00231102,0.,-0.00250059,-0.00021930,0.,-0.006
 06738,-0.00193633,0.,0.00706766,0.03433062,0.,0.00797199,-0.03244711,0
 .,-0.07069801,0.00367281,0.,0.00044056,0.00151989,0.,0.00027799,-0.001
 52425,0.,0.00091731,-0.00054500,0.,0.00107119,0.00113120,0.,0.06673200
 ,0.00013233,-0.00039566,0.,0.00332134,0.00126727,0.,-0.00038945,0.0010
 6588,0.,-0.00305876,0.00015490,0.,-0.00378076,-0.01167709,0.,0.0040307
 2,-0.01022923,0.,0.00636461,-0.39007032,0.,-0.00041439,-0.00047795,0.,
 0.00022417,-0.00061115,0.,0.00049634,0.00069433,0.,-0.00050082,0.00073
 689,0.,-0.00642533,0.40954213,0.,0.,-0.00032317,0.,0.,0.00981505,0.,0.
 ,-0.00065415,0.,0.,0.00334715,0.,0.,-0.00004548,0.,0.,0.00014480,0.,0.
 ,-0.03370106,0.,0.,0.00216688,0.,0.,0.00055923,0.,0.,-0.00665619,0.,0.
 ,-0.00187481,0.,0.,0.02722173\\0.00005077,-0.00005576,0.,-0.00002417,-
 0.00013883,0.,-0.00006205,0.00024338,0.,0.00003315,-0.00003479,0.,0.00
 005504,0.00002029,0.,0.00003554,0.00004263,0.,-0.00012383,-0.00005159,
 0.,0.00002685,0.00000465,0.,0.00000477,-0.00000191,0.,0.00000390,-0.00
 002629,0.,-0.00000605,-0.00000017,0.,0.00000608,-0.00000162,0.\\\@
 Job cpu time:       0 days  0 hours 15 minutes 20.5 seconds.
 File lengths (MBytes):  RWF=   5440 Int=      0 D2E=      0 Chk=     32 Scr=     32
 Normal termination of Gaussian 09 at Fri Sep  3 00:41:51 2021.
