 Entering Gaussian System, Link 0=g09
 AtFile(1): pc-2.gbs
            -H     0
            S    4   1.00
                  0.754230D+02           0.240650D-02
                  0.113500D+02           0.184870D-01
                  0.259930D+01           0.897420D-01
                  0.735130D+00           0.281110D+00
            S    1   1.00
                  0.231670D+00           0.100000D+01
            S    1   1.00
                  0.741470D-01           0.100000D+01
            P    1   1.00
                  0.160000D+01           0.100000D+01
            P    1   1.00
                  0.450000D+00           0.100000D+01
            D    1   1.00
                  0.125000D+01           0.100000D+01
            ****
            -C     0
            S    7   1.00
                  0.785710D+04           0.568250D-03
                  0.117870D+04           0.439150D-02
                  0.268320D+03           0.225040D-01
                  0.759480D+02           0.866530D-01
                  0.245590D+02           0.244050D+00
                  0.862120D+01           0.441480D+00
                  0.312780D+01           0.353320D+00
            S    7   1.00
                  0.117870D+04          -0.594920D-06
                  0.268320D+03          -0.627480D-04
                  0.759480D+02          -0.757730D-03
                  0.245590D+02          -0.733080D-02
                  0.862120D+01          -0.389320D-01
                  0.312780D+01          -0.889080D-01
                  0.822020D+00           0.216890D+00
            S    1   1.00
                  0.330170D+00           0.100000D+01
            S    1   1.00
                  0.114630D+00           0.100000D+01
            P    4   1.00
                  0.337750D+02           0.602940D-02
                  0.767660D+01           0.432280D-01
                  0.223570D+01           0.163010D+00
                  0.764470D+00           0.365040D+00
            P    1   1.00
                  0.262320D+00           0.100000D+01
            P    1   1.00
                  0.846380D-01           0.100000D+01
            D    1   1.00
                  0.140000D+01           0.100000D+01
            D    1   1.00
                  0.450000D+00           0.100000D+01
            F    1   1.00
                  0.950000D+00           0.100000D+01
            ****
            -N     0
            S    7   1.00
                  0.111010D+05           0.545700D-03
                  0.166530D+04           0.421810D-02
                  0.379080D+03           0.216450D-01
                  0.107300D+03           0.837760D-01
                  0.347470D+02           0.238810D+00
                  0.122490D+02           0.439940D+00
                  0.447430D+01           0.363640D+00
            S    7   1.00
                  0.166530D+04          -0.150060D-05
                  0.379080D+03          -0.587530D-04
                  0.107300D+03          -0.774530D-03
                  0.347470D+02          -0.721610D-02
                  0.122490D+02          -0.393380D-01
                  0.447430D+01          -0.906110D-01
                  0.124040D+01           0.198820D+00
            S    1   1.00
                  0.487430D+00           0.100000D+01
            S    1   1.00
                  0.164840D+00           0.100000D+01
            P    4   1.00
                  0.479340D+02           0.617060D-02
                  0.109990D+02           0.442600D-01
                  0.324720D+01           0.168250D+00
                  0.111140D+01           0.368480D+00
            P    1   1.00
                  0.379880D+00           0.100000D+01
            P    1   1.00
                  0.120680D+00           0.100000D+01
            D    1   1.00
                  0.180000D+01           0.100000D+01
            D    1   1.00
                  0.550000D+00           0.100000D+01
            F    1   1.00
                  0.102000D+01           0.100000D+01
            ****
            -O     0
            S    7   1.00
                  0.147820D+05           0.535190D-03
                  0.221730D+04           0.413750D-02
                  0.504740D+03           0.212450D-01
                  0.142870D+03           0.824530D-01
                  0.463000D+02           0.236710D+00
                  0.163370D+02           0.440390D+00
                  0.598280D+01           0.364650D+00
            S    7   1.00
                  0.221730D+04          -0.192750D-05
                  0.504740D+03          -0.579640D-04
                  0.142870D+03          -0.794940D-03
                  0.463000D+02          -0.731250D-02
                  0.163370D+02          -0.405740D-01
                  0.598280D+01          -0.915940D-01
                  0.167180D+01           0.209400D+00
            S    1   1.00
                  0.646620D+00           0.100000D+01
            S    1   1.00
                  0.216690D+00           0.100000D+01
            P    4   1.00
                  0.604240D+02           0.689490D-02
                  0.139350D+02           0.490050D-01
                  0.415310D+01           0.182550D+00
                  0.141580D+01           0.376330D+00
            P    1   1.00
                  0.475490D+00           0.100000D+01
            P    1   1.00
                  0.145290D+00           0.100000D+01
            D    1   1.00
                  0.220000D+01           0.100000D+01
            D    1   1.00
                  0.650000D+00           0.100000D+01
            F    1   1.00
                  0.110000D+01           0.100000D+01
            ****
 Initial command:
 /public3/home/sc51754/softwares/g09e01/l1.exe "./Gau-28183.inp" -scrdir="./"
 Entering Link 1 = /public3/home/sc51754/softwares/g09e01/l1.exe PID=     28184.
  
 Copyright (c) 1988,1990,1992,1993,1995,1998,2003,2009,2015,
            Gaussian, Inc.  All Rights Reserved.
  
 This is part of the Gaussian(R) 09 program.  It is based on
 the Gaussian(R) 03 system (copyright 2003, Gaussian, Inc.),
 the Gaussian(R) 98 system (copyright 1998, Gaussian, Inc.),
 the Gaussian(R) 94 system (copyright 1995, Gaussian, Inc.),
 the Gaussian 92(TM) system (copyright 1992, Gaussian, Inc.),
 the Gaussian 90(TM) system (copyright 1990, Gaussian, Inc.),
 the Gaussian 88(TM) system (copyright 1988, Gaussian, Inc.),
 the Gaussian 86(TM) system (copyright 1986, Carnegie Mellon
 University), and the Gaussian 82(TM) system (copyright 1983,
 Carnegie Mellon University). Gaussian is a federally registered
 trademark of Gaussian, Inc.
  
 This software contains proprietary and confidential information,
 including trade secrets, belonging to Gaussian, Inc.
  
 This software is provided under written license and may be
 used, copied, transmitted, or stored only in accord with that
 written license.
  
 The following legend is applicable only to US Government
 contracts under FAR:
  
                    RESTRICTED RIGHTS LEGEND
  
 Use, reproduction and disclosure by the US Government is
 subject to restrictions as set forth in subparagraphs (a)
 and (c) of the Commercial Computer Software - Restricted
 Rights clause in FAR 52.227-19.
  
 Gaussian, Inc.
 340 Quinnipiac St., Bldg. 40, Wallingford CT 06492
  
  
 ---------------------------------------------------------------
 Warning -- This program may not be used in any manner that
 competes with the business of Gaussian, Inc. or will provide
 assistance to any competitor of Gaussian, Inc.  The licensee
 of this program is prohibited from giving any competitor of
 Gaussian, Inc. access to this program.  By using this program,
 the user acknowledges that Gaussian, Inc. is engaged in the
 business of creating and licensing software in the field of
 computational chemistry and represents and warrants to the
 licensee that it is not a competitor of Gaussian, Inc. and that
 it will not use this program in any manner prohibited above.
 ---------------------------------------------------------------
  

 Cite this work as:
 Gaussian 09, Revision E.01,
 M. J. Frisch, G. W. Trucks, H. B. Schlegel, G. E. Scuseria, 
 M. A. Robb, J. R. Cheeseman, G. Scalmani, V. Barone, B. Mennucci, 
 G. A. Petersson, H. Nakatsuji, M. Caricato, X. Li, H. P. Hratchian, 
 A. F. Izmaylov, J. Bloino, G. Zheng, J. L. Sonnenberg, M. Hada, 
 M. Ehara, K. Toyota, R. Fukuda, J. Hasegawa, M. Ishida, T. Nakajima, 
 Y. Honda, O. Kitao, H. Nakai, T. Vreven, J. A. Montgomery, Jr., 
 J. E. Peralta, F. Ogliaro, M. Bearpark, J. J. Heyd, E. Brothers, 
 K. N. Kudin, V. N. Staroverov, T. Keith, R. Kobayashi, J. Normand, 
 K. Raghavachari, A. Rendell, J. C. Burant, S. S. Iyengar, J. Tomasi, 
 M. Cossi, N. Rega, J. M. Millam, M. Klene, J. E. Knox, J. B. Cross, 
 V. Bakken, C. Adamo, J. Jaramillo, R. Gomperts, R. E. Stratmann, 
 O. Yazyev, A. J. Austin, R. Cammi, C. Pomelli, J. W. Ochterski, 
 R. L. Martin, K. Morokuma, V. G. Zakrzewski, G. A. Voth, 
 P. Salvador, J. J. Dannenberg, S. Dapprich, A. D. Daniels, 
 O. Farkas, J. B. Foresman, J. V. Ortiz, J. Cioslowski, 
 and D. J. Fox, Gaussian, Inc., Wallingford CT, 2013.
 
 ******************************************
 Gaussian 09:  EM64L-G09RevE.01 30-Nov-2015
                27-Aug-2021 
 ******************************************
 %nprocshared=64
 Will use up to   64 processors via shared memory.
 %mem=128GB
 %chk=PY_H2O_M062X_PC2_OPT_FREQ.chk
 ---------------------
 #p opt freq M062X/gen
 ---------------------
 1/14=-1,18=20,19=15,26=3,38=1/1,3;
 2/9=110,12=2,17=6,18=5,40=1/2;
 3/5=7,11=2,16=1,25=1,30=1,71=1,74=-55/1,2,3;
 4//1;
 5/5=2,38=5/2;
 6/7=2,8=2,9=2,10=2,28=1/1;
 7//1,2,3,16;
 1/14=-1,18=20,19=15,26=3/3(2);
 2/9=110/2;
 99//99;
 2/9=110/2;
 3/5=7,6=1,11=2,16=1,25=1,30=1,71=1,74=-55,82=7/1,2,3;
 4/5=5,16=3,69=1/1;
 5/5=2,38=5/2;
 7//1,2,3,16;
 1/14=-1,18=20,19=15,26=3/3(-5);
 2/9=110/2;
 6/7=2,8=2,9=2,10=2,19=2,28=1/1;
 99/9=1/99;
 Leave Link    1 at Fri Aug 27 01:18:15 2021, MaxMem= 17179869184 cpu:         4.3
 (Enter /public3/home/sc51754/softwares/g09e01/l101.exe)
 -------------------------
 PY_H2O_M062X_PC2_OPT_FREQ
 -------------------------
 Symbolic Z-matrix:
 Charge =  0 Multiplicity = 1
 O                     1.26148   1.38785   0.00541 
 N                     0.24943  -0.65888   0.01158 
 C                     0.21021   0.736     0.00592 
 C                    -1.11959   1.28763   0.00047 
 C                    -0.84358  -1.46082   0.0067 
 C                    -2.21816   0.48191  -0.00352 
 C                    -2.09559  -0.93059  -0.00106 
 H                     2.7014    0.27314  -0.04162 
 H                    -1.19683   2.36437  -0.00254 
 H                    -0.64999  -2.52343   0.00862 
 H                    -3.20534   0.92605  -0.00928 
 H                    -2.96087  -1.57362  -0.00584 
 O                     3.10667  -0.61979  -0.08598 
 H                     3.83344  -0.62425   0.54074 
 H                     1.18728  -1.05929   0.02234 
 
 Add virtual bond connecting atoms H8         and O1         Dist= 3.44D+00.
 Add virtual bond connecting atoms O13        and H15        Dist= 3.73D+00.
 NAtoms=     15 NQM=       15 NQMF=       0 NMMI=      0 NMMIF=      0
                NMic=       0 NMicF=      0.
                    Isotopes and Nuclear Properties:
 (Nuclear quadrupole moments (NQMom) in fm**2, nuclear magnetic moments (NMagM)
  in nuclear magnetons)

  Atom         1           2           3           4           5           6           7           8           9          10
 IAtWgt=          16          14          12          12          12          12          12           1           1           1
 AtmWgt=  15.9949146  14.0030740  12.0000000  12.0000000  12.0000000  12.0000000  12.0000000   1.0078250   1.0078250   1.0078250
 NucSpn=           0           2           0           0           0           0           0           1           1           1
 AtZEff=   0.0000000   0.0000000   0.0000000   0.0000000   0.0000000   0.0000000   0.0000000   0.0000000   0.0000000   0.0000000
 NQMom=    0.0000000   2.0440000   0.0000000   0.0000000   0.0000000   0.0000000   0.0000000   0.0000000   0.0000000   0.0000000
 NMagM=    0.0000000   0.4037610   0.0000000   0.0000000   0.0000000   0.0000000   0.0000000   2.7928460   2.7928460   2.7928460
 AtZNuc=   8.0000000   7.0000000   6.0000000   6.0000000   6.0000000   6.0000000   6.0000000   1.0000000   1.0000000   1.0000000

  Atom        11          12          13          14          15
 IAtWgt=           1           1          16           1           1
 AtmWgt=   1.0078250   1.0078250  15.9949146   1.0078250   1.0078250
 NucSpn=           1           1           0           1           1
 AtZEff=   0.0000000   0.0000000   0.0000000   0.0000000   0.0000000
 NQMom=    0.0000000   0.0000000   0.0000000   0.0000000   0.0000000
 NMagM=    2.7928460   2.7928460   0.0000000   2.7928460   2.7928460
 AtZNuc=   1.0000000   1.0000000   8.0000000   1.0000000   1.0000000
 Leave Link  101 at Fri Aug 27 01:18:15 2021, MaxMem= 17179869184 cpu:         7.0
 (Enter /public3/home/sc51754/softwares/g09e01/l103.exe)

 GradGradGradGradGradGradGradGradGradGradGradGradGradGradGradGradGradGrad
 Berny optimization.
 Initialization pass.
                           ----------------------------
                           !    Initial Parameters    !
                           ! (Angstroms and Degrees)  !
 --------------------------                            --------------------------
 ! Name  Definition              Value          Derivative Info.                !
 --------------------------------------------------------------------------------
 ! R1    R(1,3)                  1.237          estimate D2E/DX2                !
 ! R2    R(1,8)                  1.8216         estimate D2E/DX2                !
 ! R3    R(2,3)                  1.3954         estimate D2E/DX2                !
 ! R4    R(2,5)                  1.3556         estimate D2E/DX2                !
 ! R5    R(2,15)                 1.0198         estimate D2E/DX2                !
 ! R6    R(3,4)                  1.4397         estimate D2E/DX2                !
 ! R7    R(4,6)                  1.3624         estimate D2E/DX2                !
 ! R8    R(4,9)                  1.0795         estimate D2E/DX2                !
 ! R9    R(5,7)                  1.3597         estimate D2E/DX2                !
 ! R10   R(5,10)                 1.0801         estimate D2E/DX2                !
 ! R11   R(6,7)                  1.4178         estimate D2E/DX2                !
 ! R12   R(6,11)                 1.0825         estimate D2E/DX2                !
 ! R13   R(7,12)                 1.0781         estimate D2E/DX2                !
 ! R14   R(8,13)                 0.9816         estimate D2E/DX2                !
 ! R15   R(13,14)                0.9597         estimate D2E/DX2                !
 ! R16   R(13,15)                1.972          estimate D2E/DX2                !
 ! A1    A(3,1,8)              110.4468         estimate D2E/DX2                !
 ! A2    A(3,2,5)              124.6558         estimate D2E/DX2                !
 ! A3    A(3,2,15)             114.7312         estimate D2E/DX2                !
 ! A4    A(5,2,15)             120.6129         estimate D2E/DX2                !
 ! A5    A(1,3,2)              120.1911         estimate D2E/DX2                !
 ! A6    A(1,3,4)              125.6683         estimate D2E/DX2                !
 ! A7    A(2,3,4)              114.1406         estimate D2E/DX2                !
 ! A8    A(3,4,6)              121.2133         estimate D2E/DX2                !
 ! A9    A(3,4,9)              116.6328         estimate D2E/DX2                !
 ! A10   A(6,4,9)              122.1537         estimate D2E/DX2                !
 ! A11   A(2,5,7)              120.7801         estimate D2E/DX2                !
 ! A12   A(2,5,10)             115.9423         estimate D2E/DX2                !
 ! A13   A(7,5,10)             123.2776         estimate D2E/DX2                !
 ! A14   A(4,6,7)              121.2972         estimate D2E/DX2                !
 ! A15   A(4,6,11)             119.5197         estimate D2E/DX2                !
 ! A16   A(7,6,11)             119.1831         estimate D2E/DX2                !
 ! A17   A(5,7,6)              117.9124         estimate D2E/DX2                !
 ! A18   A(5,7,12)             120.4308         estimate D2E/DX2                !
 ! A19   A(6,7,12)             121.6568         estimate D2E/DX2                !
 ! A20   A(1,8,13)             152.1528         estimate D2E/DX2                !
 ! A21   A(8,13,14)            106.7015         estimate D2E/DX2                !
 ! A22   A(8,13,15)             78.3702         estimate D2E/DX2                !
 ! A23   A(14,13,15)           134.4412         estimate D2E/DX2                !
 ! A24   A(2,15,13)            143.8035         estimate D2E/DX2                !
 ! D1    D(8,1,3,2)              1.8252         estimate D2E/DX2                !
 ! D2    D(8,1,3,4)           -178.1461         estimate D2E/DX2                !
 ! D3    D(3,1,8,13)             2.218          estimate D2E/DX2                !
 ! D4    D(5,2,3,1)           -179.6964         estimate D2E/DX2                !
 ! D5    D(5,2,3,4)              0.278          estimate D2E/DX2                !
 ! D6    D(15,2,3,1)             0.4507         estimate D2E/DX2                !
 ! D7    D(15,2,3,4)          -179.5749         estimate D2E/DX2                !
 ! D8    D(3,2,5,7)             -0.1672         estimate D2E/DX2                !
 ! D9    D(3,2,5,10)           179.7881         estimate D2E/DX2                !
 ! D10   D(15,2,5,7)           179.6776         estimate D2E/DX2                !
 ! D11   D(15,2,5,10)           -0.3671         estimate D2E/DX2                !
 ! D12   D(3,2,15,13)           -6.1898         estimate D2E/DX2                !
 ! D13   D(5,2,15,13)          173.9508         estimate D2E/DX2                !
 ! D14   D(1,3,4,6)            179.7501         estimate D2E/DX2                !
 ! D15   D(1,3,4,9)             -0.1145         estimate D2E/DX2                !
 ! D16   D(2,3,4,6)             -0.2227         estimate D2E/DX2                !
 ! D17   D(2,3,4,9)            179.9126         estimate D2E/DX2                !
 ! D18   D(3,4,6,7)              0.0669         estimate D2E/DX2                !
 ! D19   D(3,4,6,11)          -179.8963         estimate D2E/DX2                !
 ! D20   D(9,4,6,7)            179.924          estimate D2E/DX2                !
 ! D21   D(9,4,6,11)            -0.0392         estimate D2E/DX2                !
 ! D22   D(2,5,7,6)             -0.0156         estimate D2E/DX2                !
 ! D23   D(2,5,7,12)           179.9426         estimate D2E/DX2                !
 ! D24   D(10,5,7,6)          -179.9675         estimate D2E/DX2                !
 ! D25   D(10,5,7,12)           -0.0093         estimate D2E/DX2                !
 ! D26   D(4,6,7,5)              0.0605         estimate D2E/DX2                !
 ! D27   D(4,6,7,12)          -179.8972         estimate D2E/DX2                !
 ! D28   D(11,6,7,5)          -179.9762         estimate D2E/DX2                !
 ! D29   D(11,6,7,12)            0.0661         estimate D2E/DX2                !
 ! D30   D(1,8,13,14)         -137.6226         estimate D2E/DX2                !
 ! D31   D(1,8,13,15)           -4.4198         estimate D2E/DX2                !
 ! D32   D(8,13,15,2)            7.3388         estimate D2E/DX2                !
 ! D33   D(14,13,15,2)         109.4095         estimate D2E/DX2                !
 --------------------------------------------------------------------------------
 Trust Radius=3.00D-01 FncErr=1.00D-07 GrdErr=1.00D-06
 Number of steps in this run=     83 maximum allowed number of steps=    100.
 GradGradGradGradGradGradGradGradGradGradGradGradGradGradGradGradGradGrad

 Leave Link  103 at Fri Aug 27 01:18:15 2021, MaxMem= 17179869184 cpu:         0.2
 (Enter /public3/home/sc51754/softwares/g09e01/l202.exe)
                          Input orientation:                          
 ---------------------------------------------------------------------
 Center     Atomic      Atomic             Coordinates (Angstroms)
 Number     Number       Type             X           Y           Z
 ---------------------------------------------------------------------
      1          8           0        1.261476    1.387852    0.005408
      2          7           0        0.249425   -0.658880    0.011581
      3          6           0        0.210209    0.735997    0.005920
      4          6           0       -1.119592    1.287625    0.000474
      5          6           0       -0.843575   -1.460822    0.006702
      6          6           0       -2.218160    0.481905   -0.003521
      7          6           0       -2.095586   -0.930593   -0.001061
      8          1           0        2.701404    0.273138   -0.041623
      9          1           0       -1.196826    2.364370   -0.002539
     10          1           0       -0.649991   -2.523426    0.008616
     11          1           0       -3.205344    0.926047   -0.009282
     12          1           0       -2.960874   -1.573618   -0.005843
     13          8           0        3.106669   -0.619787   -0.085978
     14          1           0        3.833439   -0.624251    0.540740
     15          1           0        1.187279   -1.059291    0.022340
 ---------------------------------------------------------------------
                    Distance matrix (angstroms):
                    1          2          3          4          5
     1  O    0.000000
     2  N    2.283286   0.000000
     3  C    1.236963   1.395440   0.000000
     4  C    2.383182   2.379751   1.439685   0.000000
     5  C    3.542059   1.355649   2.436488   2.762279   0.000000
     6  C    3.595648   2.718565   2.441645   1.362370   2.379869
     7  C    4.079840   2.360734   2.845042   2.423439   1.359682
     8  H    1.821590   2.623679   2.534275   3.953602   3.946622
     9  H    2.645165   3.351400   2.152073   1.079516   3.841480
    10  H    4.353368   2.070142   3.371022   3.839883   1.080095
    11  H    4.490653   3.801034   3.420870   2.116883   3.357879
    12  H    5.157390   3.338124   3.923038   3.402509   2.120339
    13  O    2.728315   2.859176   3.199387   4.637561   4.039846
    14  H    3.309098   3.623033   3.906930   5.336635   4.781162
    15  H    2.448326   1.019811   2.044014   3.290919   2.070227
                    6          7          8          9         10
     6  C    0.000000
     7  C    1.417809   0.000000
     8  H    4.924139   4.945880   0.000000
     9  H    2.141681   3.415341   4.423910   0.000000
    10  H    3.389884   2.151036   4.365220   4.918303   0.000000
    11  H    1.082510   2.163040   5.942811   2.470418   4.292903
    12  H    2.185590   1.078066   5.955937   4.315046   2.498504
    13  O    5.438228   5.212223   0.981592   5.237578   4.212515
    14  H    6.175893   5.961605   1.557548   5.876272   4.898078
    15  H    3.738043   3.285470   2.017928   4.172053   2.349349
                   11         12         13         14         15
    11  H    0.000000
    12  H    2.511594   0.000000
    13  O    6.498999   6.142580   0.000000
    14  H    7.228445   6.882059   0.959682   0.000000
    15  H    4.820550   4.180012   1.972043   2.731330   0.000000
 Stoichiometry    C5H7NO2
 Framework group  C1[X(C5H7NO2)]
 Deg. of freedom    39
 Full point group                 C1      NOp   1
 Largest Abelian subgroup         C1      NOp   1
 Largest concise Abelian subgroup C1      NOp   1
                         Standard orientation:                         
 ---------------------------------------------------------------------
 Center     Atomic      Atomic             Coordinates (Angstroms)
 Number     Number       Type             X           Y           Z
 ---------------------------------------------------------------------
      1          8           0        1.261476    1.387852    0.005408
      2          7           0        0.249425   -0.658880    0.011581
      3          6           0        0.210209    0.735997    0.005920
      4          6           0       -1.119592    1.287625    0.000474
      5          6           0       -0.843575   -1.460822    0.006702
      6          6           0       -2.218160    0.481905   -0.003521
      7          6           0       -2.095586   -0.930593   -0.001061
      8          1           0        2.701404    0.273138   -0.041623
      9          1           0       -1.196826    2.364370   -0.002539
     10          1           0       -0.649991   -2.523426    0.008616
     11          1           0       -3.205344    0.926047   -0.009282
     12          1           0       -2.960874   -1.573618   -0.005843
     13          8           0        3.106669   -0.619787   -0.085978
     14          1           0        3.833439   -0.624251    0.540740
     15          1           0        1.187279   -1.059291    0.022340
 ---------------------------------------------------------------------
 Rotational constants (GHZ):      4.0248921      1.3974909      1.0390436
 Leave Link  202 at Fri Aug 27 01:18:15 2021, MaxMem= 17179869184 cpu:         2.4
 (Enter /public3/home/sc51754/softwares/g09e01/l301.exe)
 General basis read from cards:  (5D, 7F)
 Centers:       8      9     10     11     12     14     15
 S 4 1.00
     Exponent=  7.5423000000D+01 Coefficients=  2.4065000000D-03
     Exponent=  1.1350000000D+01 Coefficients=  1.8487000000D-02
     Exponent=  2.5993000000D+00 Coefficients=  8.9742000000D-02
     Exponent=  7.3513000000D-01 Coefficients=  2.8111000000D-01
 S 1 1.00
     Exponent=  2.3167000000D-01 Coefficients=  1.0000000000D+00
 S 1 1.00
     Exponent=  7.4147000000D-02 Coefficients=  1.0000000000D+00
 P 1 1.00
     Exponent=  1.6000000000D+00 Coefficients=  1.0000000000D+00
 P 1 1.00
     Exponent=  4.5000000000D-01 Coefficients=  1.0000000000D+00
 D 1 1.00
     Exponent=  1.2500000000D+00 Coefficients=  1.0000000000D+00
 ****
 Centers:       3      4      5      6      7
 S 7 1.00
     Exponent=  7.8571000000D+03 Coefficients=  5.6825000000D-04
     Exponent=  1.1787000000D+03 Coefficients=  4.3915000000D-03
     Exponent=  2.6832000000D+02 Coefficients=  2.2504000000D-02
     Exponent=  7.5948000000D+01 Coefficients=  8.6653000000D-02
     Exponent=  2.4559000000D+01 Coefficients=  2.4405000000D-01
     Exponent=  8.6212000000D+00 Coefficients=  4.4148000000D-01
     Exponent=  3.1278000000D+00 Coefficients=  3.5332000000D-01
 S 7 1.00
     Exponent=  1.1787000000D+03 Coefficients= -5.9492000000D-07
     Exponent=  2.6832000000D+02 Coefficients= -6.2748000000D-05
     Exponent=  7.5948000000D+01 Coefficients= -7.5773000000D-04
     Exponent=  2.4559000000D+01 Coefficients= -7.3308000000D-03
     Exponent=  8.6212000000D+00 Coefficients= -3.8932000000D-02
     Exponent=  3.1278000000D+00 Coefficients= -8.8908000000D-02
     Exponent=  8.2202000000D-01 Coefficients=  2.1689000000D-01
 S 1 1.00
     Exponent=  3.3017000000D-01 Coefficients=  1.0000000000D+00
 S 1 1.00
     Exponent=  1.1463000000D-01 Coefficients=  1.0000000000D+00
 P 4 1.00
     Exponent=  3.3775000000D+01 Coefficients=  6.0294000000D-03
     Exponent=  7.6766000000D+00 Coefficients=  4.3228000000D-02
     Exponent=  2.2357000000D+00 Coefficients=  1.6301000000D-01
     Exponent=  7.6447000000D-01 Coefficients=  3.6504000000D-01
 P 1 1.00
     Exponent=  2.6232000000D-01 Coefficients=  1.0000000000D+00
 P 1 1.00
     Exponent=  8.4638000000D-02 Coefficients=  1.0000000000D+00
 D 1 1.00
     Exponent=  1.4000000000D+00 Coefficients=  1.0000000000D+00
 D 1 1.00
     Exponent=  4.5000000000D-01 Coefficients=  1.0000000000D+00
 F 1 1.00
     Exponent=  9.5000000000D-01 Coefficients=  1.0000000000D+00
 ****
 Centers:       2
 S 7 1.00
     Exponent=  1.1101000000D+04 Coefficients=  5.4570000000D-04
     Exponent=  1.6653000000D+03 Coefficients=  4.2181000000D-03
     Exponent=  3.7908000000D+02 Coefficients=  2.1645000000D-02
     Exponent=  1.0730000000D+02 Coefficients=  8.3776000000D-02
     Exponent=  3.4747000000D+01 Coefficients=  2.3881000000D-01
     Exponent=  1.2249000000D+01 Coefficients=  4.3994000000D-01
     Exponent=  4.4743000000D+00 Coefficients=  3.6364000000D-01
 S 7 1.00
     Exponent=  1.6653000000D+03 Coefficients= -1.5006000000D-06
     Exponent=  3.7908000000D+02 Coefficients= -5.8753000000D-05
     Exponent=  1.0730000000D+02 Coefficients= -7.7453000000D-04
     Exponent=  3.4747000000D+01 Coefficients= -7.2161000000D-03
     Exponent=  1.2249000000D+01 Coefficients= -3.9338000000D-02
     Exponent=  4.4743000000D+00 Coefficients= -9.0611000000D-02
     Exponent=  1.2404000000D+00 Coefficients=  1.9882000000D-01
 S 1 1.00
     Exponent=  4.8743000000D-01 Coefficients=  1.0000000000D+00
 S 1 1.00
     Exponent=  1.6484000000D-01 Coefficients=  1.0000000000D+00
 P 4 1.00
     Exponent=  4.7934000000D+01 Coefficients=  6.1706000000D-03
     Exponent=  1.0999000000D+01 Coefficients=  4.4260000000D-02
     Exponent=  3.2472000000D+00 Coefficients=  1.6825000000D-01
     Exponent=  1.1114000000D+00 Coefficients=  3.6848000000D-01
 P 1 1.00
     Exponent=  3.7988000000D-01 Coefficients=  1.0000000000D+00
 P 1 1.00
     Exponent=  1.2068000000D-01 Coefficients=  1.0000000000D+00
 D 1 1.00
     Exponent=  1.8000000000D+00 Coefficients=  1.0000000000D+00
 D 1 1.00
     Exponent=  5.5000000000D-01 Coefficients=  1.0000000000D+00
 F 1 1.00
     Exponent=  1.0200000000D+00 Coefficients=  1.0000000000D+00
 ****
 Centers:       1     13
 S 7 1.00
     Exponent=  1.4782000000D+04 Coefficients=  5.3519000000D-04
     Exponent=  2.2173000000D+03 Coefficients=  4.1375000000D-03
     Exponent=  5.0474000000D+02 Coefficients=  2.1245000000D-02
     Exponent=  1.4287000000D+02 Coefficients=  8.2453000000D-02
     Exponent=  4.6300000000D+01 Coefficients=  2.3671000000D-01
     Exponent=  1.6337000000D+01 Coefficients=  4.4039000000D-01
     Exponent=  5.9828000000D+00 Coefficients=  3.6465000000D-01
 S 7 1.00
     Exponent=  2.2173000000D+03 Coefficients= -1.9275000000D-06
     Exponent=  5.0474000000D+02 Coefficients= -5.7964000000D-05
     Exponent=  1.4287000000D+02 Coefficients= -7.9494000000D-04
     Exponent=  4.6300000000D+01 Coefficients= -7.3125000000D-03
     Exponent=  1.6337000000D+01 Coefficients= -4.0574000000D-02
     Exponent=  5.9828000000D+00 Coefficients= -9.1594000000D-02
     Exponent=  1.6718000000D+00 Coefficients=  2.0940000000D-01
 S 1 1.00
     Exponent=  6.4662000000D-01 Coefficients=  1.0000000000D+00
 S 1 1.00
     Exponent=  2.1669000000D-01 Coefficients=  1.0000000000D+00
 P 4 1.00
     Exponent=  6.0424000000D+01 Coefficients=  6.8949000000D-03
     Exponent=  1.3935000000D+01 Coefficients=  4.9005000000D-02
     Exponent=  4.1531000000D+00 Coefficients=  1.8255000000D-01
     Exponent=  1.4158000000D+00 Coefficients=  3.7633000000D-01
 P 1 1.00
     Exponent=  4.7549000000D-01 Coefficients=  1.0000000000D+00
 P 1 1.00
     Exponent=  1.4529000000D-01 Coefficients=  1.0000000000D+00
 D 1 1.00
     Exponent=  2.2000000000D+00 Coefficients=  1.0000000000D+00
 D 1 1.00
     Exponent=  6.5000000000D-01 Coefficients=  1.0000000000D+00
 F 1 1.00
     Exponent=  1.1000000000D+00 Coefficients=  1.0000000000D+00
 ****
 Ernie: Thresh=  0.10000D-02 Tol=  0.10000D-05 Strict=F.
 Ernie:  8 primitive shells out of 263 were deleted.
 There are   385 symmetry adapted cartesian basis functions of A   symmetry.
 There are   338 symmetry adapted basis functions of A   symmetry.
   338 basis functions,   566 primitive gaussians,   385 cartesian basis functions
    30 alpha electrons       30 beta electrons
       nuclear repulsion energy       356.8539014902 Hartrees.
 IExCor= 4336 DFT=T Ex+Corr=M062X ExCW=0 ScaHFX=  0.540000
 ScaDFX=  1.000000  1.000000  1.000000  1.000000 ScalE2=  1.000000  1.000000
 IRadAn=      0 IRanWt=     -1 IRanGd=            0 ICorTp=0 IEmpDi=  4
 NAtoms=   15 NActive=   15 NUniq=   15 SFac= 1.00D+00 NAtFMM=   60 NAOKFM=F Big=F
 Integral buffers will be    131072 words long.
 Raffenetti 2 integral format.
 Two-electron integral symmetry is turned on.
 Leave Link  301 at Fri Aug 27 01:18:15 2021, MaxMem= 17179869184 cpu:         2.1
 (Enter /public3/home/sc51754/softwares/g09e01/l302.exe)
 NPDir=0 NMtPBC=     1 NCelOv=     1 NCel=       1 NClECP=     1 NCelD=      1
         NCelK=      1 NCelE2=     1 NClLst=     1 CellRange=     0.0.
 One-electron integrals computed using PRISM.
 NBasis=   338 RedAO= T EigKep=  1.57D-04  NBF=   338
 NBsUse=   338 1.00D-06 EigRej= -1.00D+00 NBFU=   338
 Precomputing XC quadrature grid using
 IXCGrd= 4 IRadAn=           0 IRanWt=          -1 IRanGd=           0 AccXCQ= 0.00D+00.
 Generated NRdTot=       0 NPtTot=           0 NUsed=           0 NTot=          32
 NSgBfM=   385   385   385   385   385 MxSgAt=    15 MxSgA2=    15.
 Leave Link  302 at Fri Aug 27 01:18:16 2021, MaxMem= 17179869184 cpu:        48.1
 (Enter /public3/home/sc51754/softwares/g09e01/l303.exe)
 DipDrv:  MaxL=1.
 Leave Link  303 at Fri Aug 27 01:18:16 2021, MaxMem= 17179869184 cpu:        14.0
 (Enter /public3/home/sc51754/softwares/g09e01/l401.exe)
 ExpMin= 7.41D-02 ExpMax= 1.48D+04 ExpMxC= 5.05D+02 IAcc=2 IRadAn=         4 AccDes= 0.00D+00
 Harris functional with IExCor= 1009 and IRadAn=       4 diagonalized for initial guess.
 HarFok:  IExCor= 1009 AccDes= 0.00D+00 IRadAn=         4 IDoV= 1 UseB2=F ITyADJ=14
 ICtDFT=  3500011 ScaDFX=  1.000000  1.000000  1.000000  1.000000
 FoFCou: FMM=F IPFlag=           0 FMFlag=      100000 FMFlg1=           0
         NFxFlg=           0 DoJE=T BraDBF=F KetDBF=T FulRan=T
         wScrn=  0.000000 ICntrl=     500 IOpCl=  0 I1Cent=   200000004 NGrid=           0
         NMat0=    1 NMatS0=      1 NMatT0=    0 NMatD0=    1 NMtDS0=    0 NMtDT0=    0
 Petite list used in FoFCou.
 Harris En= -399.816960565454    
 JPrj=0 DoOrth=F DoCkMO=F.
 Leave Link  401 at Fri Aug 27 01:18:17 2021, MaxMem= 17179869184 cpu:        51.0
 (Enter /public3/home/sc51754/softwares/g09e01/l502.exe)
 Closed shell SCF:
 Using DIIS extrapolation, IDIIS=  1040.
 Integral symmetry usage will be decided dynamically.
 Keep R1 ints in memory in canonical form, NReq=1670404686.
 IVT=      490665 IEndB=      490665 NGot= 17179869184 MDV= 15538220534
 LenX= 15538220534 LenY= 15538071868
 Requested convergence on RMS density matrix=1.00D-08 within 128 cycles.
 Requested convergence on MAX density matrix=1.00D-06.
 Requested convergence on             energy=1.00D-06.
 No special actions if energy rises.
 FoFCou: FMM=F IPFlag=           0 FMFlag=           0 FMFlg1=           0
         NFxFlg=           0 DoJE=F BraDBF=F KetDBF=F FulRan=T
         wScrn=  0.000000 ICntrl=     600 IOpCl=  0 I1Cent=           0 NGrid=           0
         NMat0=    1 NMatS0=  57291 NMatT0=    0 NMatD0=    1 NMtDS0=    0 NMtDT0=    0
 Symmetry not used in FoFCou.
 Integral accuracy reduced to 1.0D-05 until final iterations.

 Cycle   1  Pass 0  IDiag  1:
 E= -399.714674971881    
 DIIS: error= 3.09D-02 at cycle   1 NSaved=   1.
 NSaved= 1 IEnMin= 1 EnMin= -399.714674971881     IErMin= 1 ErrMin= 3.09D-02
 ErrMax= 3.09D-02  0.00D+00 EMaxC= 1.00D-01 BMatC= 3.37D-01 BMatP= 3.37D-01
 IDIUse=3 WtCom= 6.91D-01 WtEn= 3.09D-01
 Coeff-Com:  0.100D+01
 Coeff-En:   0.100D+01
 Coeff:      0.100D+01
 Gap=     0.244 Goal=   None    Shift=    0.000
 GapD=    0.244 DampG=1.000 DampE=0.500 DampFc=0.5000 IDamp=-1.
 Damping current iteration by 5.00D-01
 RMSDP=2.35D-03 MaxDP=1.17D-01              OVMax= 2.10D-01

 Cycle   2  Pass 0  IDiag  1:
 E= -399.833958787416     Delta-E=       -0.119283815535 Rises=F Damp=T
 DIIS: error= 8.87D-03 at cycle   2 NSaved=   2.
 NSaved= 2 IEnMin= 2 EnMin= -399.833958787416     IErMin= 2 ErrMin= 8.87D-03
 ErrMax= 8.87D-03  0.00D+00 EMaxC= 1.00D-01 BMatC= 2.54D-02 BMatP= 3.37D-01
 IDIUse=3 WtCom= 9.11D-01 WtEn= 8.87D-02
 Coeff-Com:  0.220D-01 0.978D+00
 Coeff-En:   0.240D-01 0.976D+00
 Coeff:      0.222D-01 0.978D+00
 Gap=     0.319 Goal=   None    Shift=    0.000
 RMSDP=6.01D-04 MaxDP=3.21D-02 DE=-1.19D-01 OVMax= 1.21D-01

 Cycle   3  Pass 0  IDiag  1:
 E= -399.962697189321     Delta-E=       -0.128738401905 Rises=F Damp=F
 DIIS: error= 5.74D-03 at cycle   3 NSaved=   3.
 NSaved= 3 IEnMin= 3 EnMin= -399.962697189321     IErMin= 3 ErrMin= 5.74D-03
 ErrMax= 5.74D-03  0.00D+00 EMaxC= 1.00D-01 BMatC= 1.13D-02 BMatP= 2.54D-02
 IDIUse=3 WtCom= 9.43D-01 WtEn= 5.74D-02
 Coeff-Com: -0.480D-01 0.390D+00 0.658D+00
 Coeff-En:   0.000D+00 0.000D+00 0.100D+01
 Coeff:     -0.452D-01 0.368D+00 0.677D+00
 Gap=     0.260 Goal=   None    Shift=    0.000
 RMSDP=2.89D-04 MaxDP=1.66D-02 DE=-1.29D-01 OVMax= 4.32D-02

 Cycle   4  Pass 0  IDiag  1:
 E= -399.969340847040     Delta-E=       -0.006643657719 Rises=F Damp=F
 DIIS: error= 2.62D-03 at cycle   4 NSaved=   4.
 NSaved= 4 IEnMin= 4 EnMin= -399.969340847040     IErMin= 4 ErrMin= 2.62D-03
 ErrMax= 2.62D-03  0.00D+00 EMaxC= 1.00D-01 BMatC= 3.20D-03 BMatP= 1.13D-02
 IDIUse=3 WtCom= 9.74D-01 WtEn= 2.62D-02
 Coeff-Com: -0.209D-01 0.683D-01 0.374D+00 0.579D+00
 Coeff-En:   0.000D+00 0.000D+00 0.217D+00 0.783D+00
 Coeff:     -0.203D-01 0.665D-01 0.370D+00 0.584D+00
 Gap=     0.264 Goal=   None    Shift=    0.000
 RMSDP=1.11D-04 MaxDP=6.32D-03 DE=-6.64D-03 OVMax= 1.24D-02

 Cycle   5  Pass 0  IDiag  1:
 E= -399.971789593979     Delta-E=       -0.002448746939 Rises=F Damp=F
 DIIS: error= 5.70D-04 at cycle   5 NSaved=   5.
 NSaved= 5 IEnMin= 5 EnMin= -399.971789593979     IErMin= 5 ErrMin= 5.70D-04
 ErrMax= 5.70D-04  0.00D+00 EMaxC= 1.00D-01 BMatC= 1.12D-04 BMatP= 3.20D-03
 IDIUse=3 WtCom= 9.94D-01 WtEn= 5.70D-03
 Coeff-Com: -0.558D-02 0.613D-02 0.128D+00 0.256D+00 0.616D+00
 Coeff-En:   0.000D+00 0.000D+00 0.000D+00 0.000D+00 0.100D+01
 Coeff:     -0.555D-02 0.610D-02 0.127D+00 0.255D+00 0.618D+00
 Gap=     0.263 Goal=   None    Shift=    0.000
 RMSDP=2.35D-05 MaxDP=1.30D-03 DE=-2.45D-03 OVMax= 3.50D-03

 Cycle   6  Pass 0  IDiag  1:
 E= -399.971870409002     Delta-E=       -0.000080815022 Rises=F Damp=F
 DIIS: error= 1.12D-04 at cycle   6 NSaved=   6.
 NSaved= 6 IEnMin= 6 EnMin= -399.971870409002     IErMin= 6 ErrMin= 1.12D-04
 ErrMax= 1.12D-04  0.00D+00 EMaxC= 1.00D-01 BMatC= 8.66D-06 BMatP= 1.12D-04
 IDIUse=3 WtCom= 9.99D-01 WtEn= 1.12D-03
 Coeff-Com: -0.432D-03-0.275D-02 0.233D-01 0.540D-01 0.253D+00 0.673D+00
 Coeff-En:   0.000D+00 0.000D+00 0.000D+00 0.000D+00 0.000D+00 0.100D+01
 Coeff:     -0.432D-03-0.275D-02 0.233D-01 0.539D-01 0.253D+00 0.673D+00
 Gap=     0.263 Goal=   None    Shift=    0.000
 RMSDP=7.79D-06 MaxDP=3.02D-04 DE=-8.08D-05 OVMax= 1.04D-03

 Initial convergence to 1.0D-05 achieved.  Increase integral accuracy.
 Cycle   7  Pass 1  IDiag  1:
 E= -399.972193185035     Delta-E=       -0.000322776033 Rises=F Damp=F
 DIIS: error= 1.80D-04 at cycle   1 NSaved=   1.
 NSaved= 1 IEnMin= 1 EnMin= -399.972193185035     IErMin= 1 ErrMin= 1.80D-04
 ErrMax= 1.80D-04  0.00D+00 EMaxC= 1.00D-01 BMatC= 1.86D-05 BMatP= 1.86D-05
 IDIUse=3 WtCom= 9.98D-01 WtEn= 1.80D-03
 Coeff-Com:  0.100D+01
 Coeff-En:   0.100D+01
 Coeff:      0.100D+01
 Gap=     0.263 Goal=   None    Shift=    0.000
 RMSDP=7.79D-06 MaxDP=3.02D-04 DE=-3.23D-04 OVMax= 9.64D-04

 Cycle   8  Pass 1  IDiag  1:
 E= -399.972202397980     Delta-E=       -0.000009212945 Rises=F Damp=F
 DIIS: error= 6.89D-05 at cycle   2 NSaved=   2.
 NSaved= 2 IEnMin= 2 EnMin= -399.972202397980     IErMin= 2 ErrMin= 6.89D-05
 ErrMax= 6.89D-05  0.00D+00 EMaxC= 1.00D-01 BMatC= 9.00D-07 BMatP= 1.86D-05
 IDIUse=1 WtCom= 1.00D+00 WtEn= 0.00D+00
 Coeff-Com:  0.411D-01 0.959D+00
 Coeff:      0.411D-01 0.959D+00
 Gap=     0.263 Goal=   None    Shift=    0.000
 RMSDP=4.97D-06 MaxDP=2.37D-04 DE=-9.21D-06 OVMax= 8.10D-04

 Cycle   9  Pass 1  IDiag  1:
 E= -399.972202121600     Delta-E=        0.000000276380 Rises=F Damp=F
 DIIS: error= 6.86D-05 at cycle   3 NSaved=   3.
 NSaved= 3 IEnMin= 2 EnMin= -399.972202397980     IErMin= 3 ErrMin= 6.86D-05
 ErrMax= 6.86D-05  0.00D+00 EMaxC= 1.00D-01 BMatC= 1.46D-06 BMatP= 9.00D-07
 IDIUse=1 WtCom= 1.00D+00 WtEn= 0.00D+00
 Coeff-Com: -0.234D-01 0.572D+00 0.451D+00
 Coeff:     -0.234D-01 0.572D+00 0.451D+00
 Gap=     0.263 Goal=   None    Shift=    0.000
 RMSDP=2.38D-06 MaxDP=1.37D-04 DE= 2.76D-07 OVMax= 4.32D-04

 Cycle  10  Pass 1  IDiag  1:
 E= -399.972203508665     Delta-E=       -0.000001387065 Rises=F Damp=F
 DIIS: error= 6.30D-06 at cycle   4 NSaved=   4.
 NSaved= 4 IEnMin= 4 EnMin= -399.972203508665     IErMin= 4 ErrMin= 6.30D-06
 ErrMax= 6.30D-06  0.00D+00 EMaxC= 1.00D-01 BMatC= 7.57D-09 BMatP= 9.00D-07
 IDIUse=1 WtCom= 1.00D+00 WtEn= 0.00D+00
 Coeff-Com: -0.526D-02 0.289D-01 0.265D-01 0.950D+00
 Coeff:     -0.526D-02 0.289D-01 0.265D-01 0.950D+00
 Gap=     0.263 Goal=   None    Shift=    0.000
 RMSDP=5.39D-07 MaxDP=1.90D-05 DE=-1.39D-06 OVMax= 1.14D-04

 Cycle  11  Pass 1  IDiag  1:
 E= -399.972203531657     Delta-E=       -0.000000022992 Rises=F Damp=F
 DIIS: error= 4.03D-06 at cycle   5 NSaved=   5.
 NSaved= 5 IEnMin= 5 EnMin= -399.972203531657     IErMin= 5 ErrMin= 4.03D-06
 ErrMax= 4.03D-06  0.00D+00 EMaxC= 1.00D-01 BMatC= 2.75D-09 BMatP= 7.57D-09
 IDIUse=1 WtCom= 1.00D+00 WtEn= 0.00D+00
 Coeff-Com:  0.213D-02-0.735D-01-0.659D-01 0.282D+00 0.855D+00
 Coeff:      0.213D-02-0.735D-01-0.659D-01 0.282D+00 0.855D+00
 Gap=     0.263 Goal=   None    Shift=    0.000
 RMSDP=2.94D-07 MaxDP=9.33D-06 DE=-2.30D-08 OVMax= 6.68D-05

 Cycle  12  Pass 1  IDiag  1:
 E= -399.972203538003     Delta-E=       -0.000000006346 Rises=F Damp=F
 DIIS: error= 1.46D-06 at cycle   6 NSaved=   6.
 NSaved= 6 IEnMin= 6 EnMin= -399.972203538003     IErMin= 6 ErrMin= 1.46D-06
 ErrMax= 1.46D-06  0.00D+00 EMaxC= 1.00D-01 BMatC= 6.73D-10 BMatP= 2.75D-09
 IDIUse=1 WtCom= 1.00D+00 WtEn= 0.00D+00
 Coeff-Com:  0.186D-02-0.382D-01-0.364D-01-0.350D-01 0.389D+00 0.718D+00
 Coeff:      0.186D-02-0.382D-01-0.364D-01-0.350D-01 0.389D+00 0.718D+00
 Gap=     0.263 Goal=   None    Shift=    0.000
 RMSDP=1.11D-07 MaxDP=4.97D-06 DE=-6.35D-09 OVMax= 2.52D-05

 Cycle  13  Pass 1  IDiag  1:
 E= -399.972203539075     Delta-E=       -0.000000001072 Rises=F Damp=F
 DIIS: error= 3.76D-07 at cycle   7 NSaved=   7.
 NSaved= 7 IEnMin= 7 EnMin= -399.972203539075     IErMin= 7 ErrMin= 3.76D-07
 ErrMax= 3.76D-07  0.00D+00 EMaxC= 1.00D-01 BMatC= 7.62D-11 BMatP= 6.73D-10
 IDIUse=1 WtCom= 1.00D+00 WtEn= 0.00D+00
 Coeff-Com:  0.478D-03-0.545D-02-0.643D-02-0.565D-01 0.360D-01 0.278D+00
 Coeff-Com:  0.754D+00
 Coeff:      0.478D-03-0.545D-02-0.643D-02-0.565D-01 0.360D-01 0.278D+00
 Coeff:      0.754D+00
 Gap=     0.263 Goal=   None    Shift=    0.000
 RMSDP=4.12D-08 MaxDP=1.67D-06 DE=-1.07D-09 OVMax= 8.27D-06

 Cycle  14  Pass 1  IDiag  1:
 E= -399.972203539171     Delta-E=       -0.000000000095 Rises=F Damp=F
 DIIS: error= 2.27D-07 at cycle   8 NSaved=   8.
 NSaved= 8 IEnMin= 8 EnMin= -399.972203539171     IErMin= 8 ErrMin= 2.27D-07
 ErrMax= 2.27D-07  0.00D+00 EMaxC= 1.00D-01 BMatC= 1.75D-11 BMatP= 7.62D-11
 IDIUse=1 WtCom= 1.00D+00 WtEn= 0.00D+00
 Coeff-Com: -0.741D-04 0.381D-02 0.271D-02-0.194D-01-0.420D-01 0.309D-01
 Coeff-Com:  0.388D+00 0.636D+00
 Coeff:     -0.741D-04 0.381D-02 0.271D-02-0.194D-01-0.420D-01 0.309D-01
 Coeff:      0.388D+00 0.636D+00
 Gap=     0.263 Goal=   None    Shift=    0.000
 RMSDP=1.08D-08 MaxDP=6.88D-07 DE=-9.54D-11 OVMax= 2.29D-06

 Cycle  15  Pass 1  IDiag  1:
 E= -399.972203539194     Delta-E=       -0.000000000023 Rises=F Damp=F
 DIIS: error= 5.28D-08 at cycle   9 NSaved=   9.
 NSaved= 9 IEnMin= 9 EnMin= -399.972203539194     IErMin= 9 ErrMin= 5.28D-08
 ErrMax= 5.28D-08  0.00D+00 EMaxC= 1.00D-01 BMatC= 1.23D-12 BMatP= 1.75D-11
 IDIUse=1 WtCom= 1.00D+00 WtEn= 0.00D+00
 Coeff-Com: -0.604D-04 0.205D-02 0.166D-02-0.584D-02-0.236D-01-0.448D-02
 Coeff-Com:  0.116D+00 0.290D+00 0.624D+00
 Coeff:     -0.604D-04 0.205D-02 0.166D-02-0.584D-02-0.236D-01-0.448D-02
 Coeff:      0.116D+00 0.290D+00 0.624D+00
 Gap=     0.263 Goal=   None    Shift=    0.000
 RMSDP=3.35D-09 MaxDP=1.61D-07 DE=-2.32D-11 OVMax= 4.31D-07

 SCF Done:  E(RM062X) =  -399.972203539     A.U. after   15 cycles
            NFock= 15  Conv=0.33D-08     -V/T= 2.0043
 KE= 3.982785932567D+02 PE=-1.648916546758D+03 EE= 4.938118484717D+02
 Leave Link  502 at Fri Aug 27 01:18:44 2021, MaxMem= 17179869184 cpu:       422.1
 (Enter /public3/home/sc51754/softwares/g09e01/l601.exe)
 Copying SCF densities to generalized density rwf, IOpCl= 0 IROHF=0.

 **********************************************************************

            Population analysis using the SCF density.

 **********************************************************************

 Orbital symmetries:
       Occupied  (A) (A) (A) (A) (A) (A) (A) (A) (A) (A) (A) (A)
                 (A) (A) (A) (A) (A) (A) (A) (A) (A) (A) (A) (A)
                 (A) (A) (A) (A) (A) (A)
       Virtual   (A) (A) (A) (A) (A) (A) (A) (A) (A) (A) (A) (A)
                 (A) (A) (A) (A) (A) (A) (A) (A) (A) (A) (A) (A)
                 (A) (A) (A) (A) (A) (A) (A) (A) (A) (A) (A) (A)
                 (A) (A) (A) (A) (A) (A) (A) (A) (A) (A) (A) (A)
                 (A) (A) (A) (A) (A) (A) (A) (A) (A) (A) (A) (A)
                 (A) (A) (A) (A) (A) (A) (A) (A) (A) (A) (A) (A)
                 (A) (A) (A) (A) (A) (A) (A) (A) (A) (A) (A) (A)
                 (A) (A) (A) (A) (A) (A) (A) (A) (A) (A) (A) (A)
                 (A) (A) (A) (A) (A) (A) (A) (A) (A) (A) (A) (A)
                 (A) (A) (A) (A) (A) (A) (A) (A) (A) (A) (A) (A)
                 (A) (A) (A) (A) (A) (A) (A) (A) (A) (A) (A) (A)
                 (A) (A) (A) (A) (A) (A) (A) (A) (A) (A) (A) (A)
                 (A) (A) (A) (A) (A) (A) (A) (A) (A) (A) (A) (A)
                 (A) (A) (A) (A) (A) (A) (A) (A) (A) (A) (A) (A)
                 (A) (A) (A) (A) (A) (A) (A) (A) (A) (A) (A) (A)
                 (A) (A) (A) (A) (A) (A) (A) (A) (A) (A) (A) (A)
                 (A) (A) (A) (A) (A) (A) (A) (A) (A) (A) (A) (A)
                 (A) (A) (A) (A) (A) (A) (A) (A) (A) (A) (A) (A)
                 (A) (A) (A) (A) (A) (A) (A) (A) (A) (A) (A) (A)
                 (A) (A) (A) (A) (A) (A) (A) (A) (A) (A) (A) (A)
                 (A) (A) (A) (A) (A) (A) (A) (A) (A) (A) (A) (A)
                 (A) (A) (A) (A) (A) (A) (A) (A) (A) (A) (A) (A)
                 (A) (A) (A) (A) (A) (A) (A) (A) (A) (A) (A) (A)
                 (A) (A) (A) (A) (A) (A) (A) (A) (A) (A) (A) (A)
                 (A) (A) (A) (A) (A) (A) (A) (A) (A) (A) (A) (A)
                 (A) (A) (A) (A) (A) (A) (A) (A)
 The electronic state is 1-A.
 Alpha  occ. eigenvalues --  -19.61072 -19.59242 -14.80885 -10.65301 -10.61107
 Alpha  occ. eigenvalues --  -10.57457 -10.55517 -10.55332  -1.16720  -1.11798
 Alpha  occ. eigenvalues --   -1.07721  -0.93058  -0.86516  -0.75088  -0.73073
 Alpha  occ. eigenvalues --   -0.64819  -0.60786  -0.58676  -0.56331  -0.54294
 Alpha  occ. eigenvalues --   -0.52903  -0.51591  -0.46668  -0.46383  -0.44469
 Alpha  occ. eigenvalues --   -0.42635  -0.39336  -0.37767  -0.34453  -0.28417
 Alpha virt. eigenvalues --   -0.02118   0.03081   0.03396   0.04870   0.05796
 Alpha virt. eigenvalues --    0.07183   0.09043   0.12345   0.14424   0.15956
 Alpha virt. eigenvalues --    0.16537   0.18009   0.18665   0.20279   0.21324
 Alpha virt. eigenvalues --    0.21890   0.23098   0.24262   0.24795   0.27598
 Alpha virt. eigenvalues --    0.29133   0.30145   0.30588   0.31209   0.31584
 Alpha virt. eigenvalues --    0.32529   0.33487   0.34560   0.36696   0.37628
 Alpha virt. eigenvalues --    0.38921   0.39647   0.40589   0.42468   0.43140
 Alpha virt. eigenvalues --    0.44634   0.45115   0.47980   0.49306   0.51454
 Alpha virt. eigenvalues --    0.52059   0.54754   0.55409   0.57543   0.58775
 Alpha virt. eigenvalues --    0.59978   0.63036   0.66049   0.66863   0.67092
 Alpha virt. eigenvalues --    0.69979   0.70783   0.74387   0.77824   0.79589
 Alpha virt. eigenvalues --    0.80142   0.82709   0.84856   0.85286   0.88343
 Alpha virt. eigenvalues --    0.90721   0.93529   0.95519   0.96034   0.96629
 Alpha virt. eigenvalues --    0.98798   1.01470   1.03464   1.04792   1.08458
 Alpha virt. eigenvalues --    1.10486   1.10695   1.12751   1.15290   1.16076
 Alpha virt. eigenvalues --    1.17179   1.18451   1.19749   1.20330   1.23121
 Alpha virt. eigenvalues --    1.23940   1.26006   1.28161   1.29690   1.30663
 Alpha virt. eigenvalues --    1.30769   1.33250   1.35783   1.39117   1.41929
 Alpha virt. eigenvalues --    1.43670   1.44865   1.45300   1.48334   1.49510
 Alpha virt. eigenvalues --    1.50374   1.51150   1.52270   1.54726   1.55959
 Alpha virt. eigenvalues --    1.59782   1.62041   1.62946   1.68000   1.68554
 Alpha virt. eigenvalues --    1.69194   1.70674   1.71308   1.75985   1.76241
 Alpha virt. eigenvalues --    1.81568   1.82039   1.84167   1.88930   1.89567
 Alpha virt. eigenvalues --    1.91835   1.92642   1.94711   1.96352   1.99446
 Alpha virt. eigenvalues --    2.04485   2.05724   2.05974   2.09758   2.10504
 Alpha virt. eigenvalues --    2.13907   2.15956   2.19193   2.19713   2.24358
 Alpha virt. eigenvalues --    2.25557   2.26030   2.27573   2.30322   2.34203
 Alpha virt. eigenvalues --    2.34918   2.47223   2.55735   2.57184   2.65232
 Alpha virt. eigenvalues --    2.71124   2.86786   2.92363   2.95044   2.96542
 Alpha virt. eigenvalues --    2.96857   3.04024   3.17657   3.19978   3.21385
 Alpha virt. eigenvalues --    3.23622   3.25189   3.25736   3.28897   3.30743
 Alpha virt. eigenvalues --    3.33200   3.35099   3.38122   3.41386   3.42596
 Alpha virt. eigenvalues --    3.46722   3.48101   3.49204   3.53566   3.54432
 Alpha virt. eigenvalues --    3.55652   3.58185   3.62973   3.63934   3.66525
 Alpha virt. eigenvalues --    3.66820   3.68738   3.70976   3.71768   3.75533
 Alpha virt. eigenvalues --    3.78957   3.83579   3.86076   3.87894   3.89795
 Alpha virt. eigenvalues --    3.90803   3.92795   3.93215   3.95228   3.95957
 Alpha virt. eigenvalues --    4.00048   4.00324   4.04039   4.04675   4.05438
 Alpha virt. eigenvalues --    4.06150   4.07815   4.09205   4.10764   4.13700
 Alpha virt. eigenvalues --    4.15266   4.15949   4.17707   4.18726   4.19934
 Alpha virt. eigenvalues --    4.20697   4.22483   4.23923   4.24512   4.26656
 Alpha virt. eigenvalues --    4.26949   4.28731   4.29409   4.29983   4.30180
 Alpha virt. eigenvalues --    4.31965   4.34038   4.36468   4.38485   4.40742
 Alpha virt. eigenvalues --    4.41243   4.42150   4.43247   4.44727   4.45133
 Alpha virt. eigenvalues --    4.46905   4.48219   4.49967   4.51305   4.53651
 Alpha virt. eigenvalues --    4.54013   4.54871   4.56799   4.57891   4.62194
 Alpha virt. eigenvalues --    4.63821   4.65850   4.68427   4.71260   4.76372
 Alpha virt. eigenvalues --    4.78538   4.80929   4.82770   4.83969   4.86106
 Alpha virt. eigenvalues --    4.86758   4.90341   4.90378   4.91846   4.94964
 Alpha virt. eigenvalues --    4.96457   5.00512   5.04838   5.07654   5.11621
 Alpha virt. eigenvalues --    5.13188   5.18368   5.18826   5.24616   5.24760
 Alpha virt. eigenvalues --    5.28693   5.29266   5.33263   5.33683   5.35015
 Alpha virt. eigenvalues --    5.40602   5.42814   5.47402   5.49691   5.50936
 Alpha virt. eigenvalues --    5.53986   5.55229   5.62495   5.64151   5.65428
 Alpha virt. eigenvalues --    5.69864   5.74623   5.78209   5.84163   5.88938
 Alpha virt. eigenvalues --    5.90654   5.92242   5.98510   5.99837   6.02476
 Alpha virt. eigenvalues --    6.05250   6.14869   6.17808   6.19272   6.22128
 Alpha virt. eigenvalues --    6.23878   6.28116   6.35808   6.38196   6.43154
 Alpha virt. eigenvalues --    6.46765   6.51805   6.55608   6.73692   6.84587
 Alpha virt. eigenvalues --    6.89468   6.94322   7.04062   7.11668   7.38844
 Alpha virt. eigenvalues --    9.42123  12.23929  13.10708  14.65006  15.29223
 Alpha virt. eigenvalues --   17.92494  18.31145  22.71883
          Condensed to atoms (all electrons):
               1          2          3          4          5          6
     1  O    8.216092  -0.099466   0.513875  -0.054331   0.011021   0.005842
     2  N   -0.099466   6.459302   0.376846  -0.050500   0.362983  -0.019357
     3  C    0.513875   0.376846   4.234269   0.463785  -0.038745  -0.049273
     4  C   -0.054331  -0.050500   0.463785   4.895668  -0.026360   0.565865
     5  C    0.011021   0.362983  -0.038745  -0.026360   4.510017  -0.093310
     6  C    0.005842  -0.019357  -0.049273   0.565865  -0.093310   4.668190
     7  C    0.001986  -0.048674  -0.028159  -0.078271   0.622989   0.459428
     8  H    0.027511   0.003212  -0.002578   0.000524   0.001424  -0.000185
     9  H    0.002980   0.004708  -0.034472   0.447866  -0.000491  -0.035447
    10  H   -0.000460  -0.037937   0.002464  -0.002852   0.430925   0.006715
    11  H   -0.000473  -0.002440   0.007022  -0.032634   0.008644   0.431793
    12  H    0.000026   0.007014  -0.000895   0.005220  -0.029278  -0.033913
    13  O   -0.035935  -0.029767  -0.000713  -0.000340  -0.001667   0.000184
    14  H    0.002873   0.000388   0.000457   0.000105  -0.000004  -0.000014
    15  H    0.000220   0.407651  -0.025785   0.004745  -0.015368  -0.001848
               7          8          9         10         11         12
     1  O    0.001986   0.027511   0.002980  -0.000460  -0.000473   0.000026
     2  N   -0.048674   0.003212   0.004708  -0.037937  -0.002440   0.007014
     3  C   -0.028159  -0.002578  -0.034472   0.002464   0.007022  -0.000895
     4  C   -0.078271   0.000524   0.447866  -0.002852  -0.032634   0.005220
     5  C    0.622989   0.001424  -0.000491   0.430925   0.008644  -0.029278
     6  C    0.459428  -0.000185  -0.035447   0.006715   0.431793  -0.033913
     7  C    4.853836   0.000000   0.006347  -0.039373  -0.043309   0.442305
     8  H    0.000000   0.407895   0.000151   0.000118   0.000001  -0.000006
     9  H    0.006347   0.000151   0.583843   0.000216  -0.009052  -0.000004
    10  H   -0.039373   0.000118   0.000216   0.607167  -0.000218  -0.005501
    11  H   -0.043309   0.000001  -0.009052  -0.000218   0.613018  -0.008183
    12  H    0.442305  -0.000006  -0.000004  -0.005501  -0.008183   0.603833
    13  O   -0.000205   0.344771  -0.000003  -0.000452  -0.000000   0.000013
    14  H    0.000019  -0.020095  -0.000002  -0.000033   0.000000  -0.000000
    15  H    0.004153  -0.007647  -0.000401  -0.007185   0.000166  -0.000041
              13         14         15
     1  O   -0.035935   0.002873   0.000220
     2  N   -0.029767   0.000388   0.407651
     3  C   -0.000713   0.000457  -0.025785
     4  C   -0.000340   0.000105   0.004745
     5  C   -0.001667  -0.000004  -0.015368
     6  C    0.000184  -0.000014  -0.001848
     7  C   -0.000205   0.000019   0.004153
     8  H    0.344771  -0.020095  -0.007647
     9  H   -0.000003  -0.000002  -0.000401
    10  H   -0.000452  -0.000033  -0.007185
    11  H   -0.000000   0.000000   0.000166
    12  H    0.000013  -0.000000  -0.000041
    13  O    7.794070   0.362655   0.039684
    14  H    0.362655   0.441851  -0.002318
    15  H    0.039684  -0.002318   0.443106
 Mulliken charges:
               1
     1  O   -0.591762
     2  N   -0.333962
     3  C    0.581902
     4  C   -0.138491
     5  C    0.257219
     6  C    0.095329
     7  C   -0.153071
     8  H    0.244903
     9  H    0.033761
    10  H    0.046406
    11  H    0.035663
    12  H    0.019410
    13  O   -0.472295
    14  H    0.214117
    15  H    0.160870
 Sum of Mulliken charges =  -0.00000
 Mulliken charges with hydrogens summed into heavy atoms:
               1
     1  O   -0.591762
     2  N   -0.173092
     3  C    0.581902
     4  C   -0.104729
     5  C    0.303624
     6  C    0.130993
     7  C   -0.133662
    13  O   -0.013274
 Electronic spatial extent (au):  <R**2>=           1080.2387
 Charge=             -0.0000 electrons
 Dipole moment (field-independent basis, Debye):
    X=             -2.5482    Y=             -2.2304    Z=              1.1391  Tot=              3.5729
 Quadrupole moment (field-independent basis, Debye-Ang):
   XX=            -41.3744   YY=            -45.6838   ZZ=            -50.0720
   XY=             -2.2172   XZ=              4.8514   YZ=             -0.8995
 Traceless Quadrupole moment (field-independent basis, Debye-Ang):
   XX=              4.3357   YY=              0.0262   ZZ=             -4.3619
   XY=             -2.2172   XZ=              4.8514   YZ=             -0.8995
 Octapole moment (field-independent basis, Debye-Ang**2):
  XXX=             23.4347  YYY=            -12.4199  ZZZ=              0.7680  XYY=             -6.7935
  XXY=              0.4811  XXZ=             19.0960  XZZ=             11.5592  YZZ=              0.5858
  YYZ=              0.6172  XYZ=             -3.3626
 Hexadecapole moment (field-independent basis, Debye-Ang**3):
 XXXX=           -761.7037 YYYY=           -349.1544 ZZZZ=            -54.1759 XXXY=             -5.3582
 XXXZ=             77.5134 YYYX=            -13.6013 YYYZ=             -0.8990 ZZZX=              3.7322
 ZZZY=             -0.5909 XXYY=           -219.6849 XXZZ=           -175.6763 YYZZ=            -77.7518
 XXYZ=            -12.9394 YYXZ=              2.8571 ZZXY=             -2.4437
 N-N= 3.568539014902D+02 E-N=-1.648916534756D+03  KE= 3.982785932567D+02
 No NMR shielding tensors so no spin-rotation constants.
 Leave Link  601 at Fri Aug 27 01:18:45 2021, MaxMem= 17179869184 cpu:        55.8
 (Enter /public3/home/sc51754/softwares/g09e01/l701.exe)
 Compute integral first derivatives.
 ... and contract with generalized density number  0.
 Leave Link  701 at Fri Aug 27 01:18:46 2021, MaxMem= 17179869184 cpu:        75.7
 (Enter /public3/home/sc51754/softwares/g09e01/l702.exe)
 L702 exits ... SP integral derivatives will be done elsewhere.
 Leave Link  702 at Fri Aug 27 01:18:46 2021, MaxMem= 17179869184 cpu:         0.3
 (Enter /public3/home/sc51754/softwares/g09e01/l703.exe)
 Compute integral first derivatives, UseDBF=F ICtDFT=           0.
 Integral derivatives from FoFJK, PRISM(SPDF).
 Calling FoFJK, ICntrl=      2127 FMM=F ISym2X=0 I1Cent= 0 IOpClX= 0 NMat=1 NMatS=1 NMatT=0.
 FoFJK:  IHMeth= 1 ICntrl=    2127 DoSepK=F KAlg= 0 I1Cent=   0 FoldK=F
 IRaf=         0 NMat=   1 IRICut=       1 DoRegI=T DoRafI=F ISym2E= 0.
 FoFCou: FMM=F IPFlag=           0 FMFlag=      100000 FMFlg1=         800
         NFxFlg=           0 DoJE=F BraDBF=F KetDBF=F FulRan=T
         wScrn=  0.000000 ICntrl=    2127 IOpCl=  0 I1Cent=           0 NGrid=           0
         NMat0=    1 NMatS0=      1 NMatT0=    0 NMatD0=    1 NMtDS0=    0 NMtDT0=    0
 Symmetry not used in FoFCou.
 Leave Link  703 at Fri Aug 27 01:18:49 2021, MaxMem= 17179869184 cpu:       184.0
 (Enter /public3/home/sc51754/softwares/g09e01/l716.exe)
 Dipole        =-1.00253750D+00-8.77508386D-01 4.48166154D-01
 ***** Axes restored to original set *****
 -------------------------------------------------------------------
 Center     Atomic                   Forces (Hartrees/Bohr)
 Number     Number              X              Y              Z
 -------------------------------------------------------------------
      1        8          -0.008428444   -0.005348924    0.000146464
      2        7          -0.001053868    0.003948573    0.000049693
      3        6           0.008169575   -0.000743479    0.000016491
      4        6          -0.004504716   -0.002315387   -0.000066550
      5        6          -0.002665429    0.003646757    0.000001071
      6        6           0.005269237    0.002395925    0.000039562
      7        6           0.003113155   -0.002178929   -0.000012820
      8        1           0.002023622   -0.003333970   -0.000423143
      9        1           0.000341299   -0.000260431   -0.000005810
     10        1           0.000143768    0.000208409   -0.000003900
     11        1           0.000244177    0.000078866   -0.000007711
     12        1           0.000408956    0.000104663    0.000014303
     13        8          -0.001190161    0.003360300    0.002379681
     14        1          -0.001840754    0.000223693   -0.001847743
     15        1          -0.000030418    0.000213934   -0.000279587
 -------------------------------------------------------------------
 Cartesian Forces:  Max     0.008428444 RMS     0.002662116
 Leave Link  716 at Fri Aug 27 01:18:50 2021, MaxMem= 17179869184 cpu:         0.4
 (Enter /public3/home/sc51754/softwares/g09e01/l103.exe)

 GradGradGradGradGradGradGradGradGradGradGradGradGradGradGradGradGradGrad
 Berny optimization.
 FormGI is forming the generalized inverse of G from B-inverse, IUseBI=4.
 Internal  Forces:  Max     0.009447349 RMS     0.001711367
 Search for a local minimum.
 Step number   1 out of a maximum of   83
 All quantities printed in internal units (Hartrees-Bohrs-Radians)
 RMS Force = .17114D-02 SwitMx=.10000D-02 MixMth= 1
 Mixed Optimization -- RFO/linear search
 Second derivative matrix not updated -- first step.
 ITU=  0
     Eigenvalues ---    0.00646   0.00900   0.01671   0.02019   0.02045
     Eigenvalues ---    0.02138   0.02190   0.02305   0.02392   0.02435
     Eigenvalues ---    0.02516   0.04986   0.06334   0.06909   0.09520
     Eigenvalues ---    0.16000   0.16000   0.16000   0.16000   0.19047
     Eigenvalues ---    0.20437   0.21968   0.22000   0.22256   0.23654
     Eigenvalues ---    0.35693   0.35983   0.36053   0.36229   0.38136
     Eigenvalues ---    0.40185   0.42590   0.44184   0.49041   0.49982
     Eigenvalues ---    0.52121   0.53321   0.55542   0.84771
 RFO step:  Lambda=-3.75247695D-04 EMin= 6.46442552D-03
 Linear search not attempted -- first point.
 Iteration  1 RMS(Cart)=  0.00569665 RMS(Int)=  0.00000584
 Iteration  2 RMS(Cart)=  0.00000464 RMS(Int)=  0.00000211
 Iteration  3 RMS(Cart)=  0.00000000 RMS(Int)=  0.00000211
 ITry= 1 IFail=0 DXMaxC= 2.12D-02 DCOld= 1.00D+10 DXMaxT= 3.00D-01 DXLimC= 3.00D+00 Rises=F
 Variable       Old X    -DE/DX   Delta X   Delta X   Delta X     New X
                                 (Linear)    (Quad)   (Total)
    R1        2.33752  -0.00945   0.00000  -0.01131  -0.01131   2.32621
    R2        3.44231  -0.00016   0.00000  -0.00669  -0.00669   3.43562
    R3        2.63700  -0.00531   0.00000  -0.01211  -0.01211   2.62489
    R4        2.56181  -0.00221   0.00000  -0.00420  -0.00420   2.55760
    R5        1.92716  -0.00115   0.00000  -0.00179  -0.00179   1.92537
    R6        2.72061  -0.00056   0.00000  -0.00147  -0.00147   2.71914
    R7        2.57451  -0.00555   0.00000  -0.01047  -0.01047   2.56404
    R8        2.03999  -0.00029   0.00000  -0.00079  -0.00079   2.03920
    R9        2.56943  -0.00479   0.00000  -0.00897  -0.00897   2.56045
   R10        2.04108  -0.00018   0.00000  -0.00049  -0.00049   2.04059
   R11        2.67927  -0.00037   0.00000  -0.00066  -0.00066   2.67861
   R12        2.04565  -0.00019   0.00000  -0.00053  -0.00053   2.04511
   R13        2.03725  -0.00039   0.00000  -0.00107  -0.00107   2.03618
   R14        1.85494  -0.00432   0.00000  -0.00841  -0.00841   1.84653
   R15        1.81354  -0.00260   0.00000  -0.00468  -0.00468   1.80885
   R16        3.72662  -0.00131   0.00000  -0.01743  -0.01743   3.70920
    A1        1.92766   0.00139   0.00000  -0.00009  -0.00010   1.92756
    A2        2.17565   0.00025   0.00000   0.00022   0.00022   2.17588
    A3        2.00244  -0.00003   0.00000   0.00045   0.00045   2.00289
    A4        2.10509  -0.00022   0.00000  -0.00067  -0.00067   2.10442
    A5        2.09773   0.00105   0.00000   0.00111   0.00111   2.09884
    A6        2.19333  -0.00100   0.00000  -0.00189  -0.00189   2.19144
    A7        1.99213  -0.00005   0.00000   0.00077   0.00077   1.99290
    A8        2.11557  -0.00038   0.00000  -0.00188  -0.00188   2.11369
    A9        2.03563  -0.00013   0.00000  -0.00106  -0.00106   2.03456
   A10        2.13199   0.00051   0.00000   0.00294   0.00294   2.13493
   A11        2.10801   0.00051   0.00000   0.00186   0.00186   2.10987
   A12        2.02357  -0.00044   0.00000  -0.00210  -0.00210   2.02147
   A13        2.15160  -0.00006   0.00000   0.00025   0.00025   2.15185
   A14        2.11704   0.00039   0.00000   0.00210   0.00210   2.11913
   A15        2.08601  -0.00036   0.00000  -0.00209  -0.00209   2.08392
   A16        2.08014  -0.00003   0.00000  -0.00001  -0.00001   2.08013
   A17        2.05796  -0.00072   0.00000  -0.00308  -0.00308   2.05488
   A18        2.10191   0.00019   0.00000   0.00047   0.00047   2.10238
   A19        2.12331   0.00053   0.00000   0.00261   0.00261   2.12592
   A20        2.65557  -0.00078   0.00000  -0.00204  -0.00204   2.65352
   A21        1.86229   0.00021   0.00000  -0.00153  -0.00152   1.86077
   A22        1.36782  -0.00069   0.00000   0.00176   0.00175   1.36957
   A23        2.34644   0.00034   0.00000   0.00335   0.00335   2.34979
   A24        2.50984  -0.00095   0.00000  -0.00078  -0.00078   2.50907
    D1        0.03186   0.00011   0.00000   0.00093   0.00093   0.03279
    D2       -3.10924   0.00011   0.00000   0.00134   0.00135  -3.10789
    D3        0.03871  -0.00013   0.00000  -0.00925  -0.00925   0.02946
    D4       -3.13629   0.00000   0.00000   0.00033   0.00033  -3.13596
    D5        0.00485  -0.00000   0.00000  -0.00004  -0.00004   0.00481
    D6        0.00787   0.00003   0.00000  -0.00012  -0.00012   0.00775
    D7       -3.13417   0.00003   0.00000  -0.00049  -0.00049  -3.13467
    D8       -0.00292   0.00001   0.00000  -0.00005  -0.00005  -0.00297
    D9        3.13789   0.00001   0.00000  -0.00026  -0.00026   3.13764
   D10        3.13597  -0.00002   0.00000   0.00043   0.00043   3.13639
   D11       -0.00641  -0.00003   0.00000   0.00022   0.00022  -0.00619
   D12       -0.10803  -0.00006   0.00000   0.00172   0.00171  -0.10632
   D13        3.03601  -0.00004   0.00000   0.00128   0.00128   3.03730
   D14        3.13723  -0.00000   0.00000  -0.00015  -0.00015   3.13708
   D15       -0.00200  -0.00000   0.00000  -0.00028  -0.00028  -0.00228
   D16       -0.00389   0.00000   0.00000   0.00024   0.00024  -0.00364
   D17        3.14007   0.00000   0.00000   0.00012   0.00012   3.14019
   D18        0.00117  -0.00000   0.00000  -0.00036  -0.00036   0.00081
   D19       -3.13978   0.00000   0.00000  -0.00007  -0.00007  -3.13985
   D20        3.14027  -0.00000   0.00000  -0.00024  -0.00024   3.14003
   D21       -0.00068  -0.00000   0.00000   0.00006   0.00006  -0.00062
   D22       -0.00027  -0.00001   0.00000  -0.00005  -0.00005  -0.00033
   D23        3.14059   0.00000   0.00000   0.00017   0.00017   3.14076
   D24       -3.14103  -0.00001   0.00000   0.00017   0.00017  -3.14085
   D25       -0.00016   0.00000   0.00000   0.00040   0.00040   0.00024
   D26        0.00106   0.00001   0.00000   0.00025   0.00025   0.00131
   D27       -3.13980  -0.00001   0.00000   0.00003   0.00003  -3.13977
   D28       -3.14118   0.00000   0.00000  -0.00004  -0.00004  -3.14122
   D29        0.00115  -0.00001   0.00000  -0.00027  -0.00027   0.00088
   D30       -2.40197  -0.00013   0.00000   0.00461   0.00461  -2.39736
   D31       -0.07714   0.00007   0.00000   0.00850   0.00849  -0.06865
   D32        0.12809   0.00003   0.00000  -0.00462  -0.00463   0.12346
   D33        1.90956  -0.00034   0.00000  -0.00508  -0.00508   1.90448
         Item               Value     Threshold  Converged?
 Maximum Force            0.009447     0.000450     NO 
 RMS     Force            0.001711     0.000300     NO 
 Maximum Displacement     0.021179     0.001800     NO 
 RMS     Displacement     0.005698     0.001200     NO 
 Predicted change in Energy=-1.878622D-04
 Lowest energy point so far.  Saving SCF results.
 GradGradGradGradGradGradGradGradGradGradGradGradGradGradGradGradGradGrad

 Leave Link  103 at Fri Aug 27 01:18:51 2021, MaxMem= 17179869184 cpu:        45.1
 (Enter /public3/home/sc51754/softwares/g09e01/l202.exe)
                          Input orientation:                          
 ---------------------------------------------------------------------
 Center     Atomic      Atomic             Coordinates (Angstroms)
 Number     Number       Type             X           Y           Z
 ---------------------------------------------------------------------
      1          8           0        1.256174    1.381802    0.005675
      2          7           0        0.249116   -0.656220    0.011798
      3          6           0        0.210511    0.732263    0.006326
      4          6           0       -1.117973    1.285036    0.000716
      5          6           0       -0.842160   -1.456753    0.006688
      6          6           0       -2.211436    0.481724   -0.003266
      7          6           0       -2.090733   -0.930587   -0.001094
      8          1           0        2.694051    0.270305   -0.043265
      9          1           0       -1.192864    2.361525   -0.002288
     10          1           0       -0.646477   -2.518709    0.008261
     11          1           0       -3.197784    0.927031   -0.009094
     12          1           0       -2.954728   -1.574398   -0.005897
     13          8           0        3.096228   -0.619288   -0.084327
     14          1           0        3.822231   -0.620489    0.539497
     15          1           0        1.185796   -1.056974    0.022205
 ---------------------------------------------------------------------
                    Distance matrix (angstroms):
                    1          2          3          4          5
     1  O    0.000000
     2  N    2.273266   0.000000
     3  C    1.230980   1.389031   0.000000
     4  C    2.376123   2.374348   1.438909   0.000000
     5  C    3.529929   1.353425   2.428972   2.755633   0.000000
     6  C    3.582532   2.710988   2.434890   1.356830   2.373333
     7  C    4.068043   2.355915   2.839164   2.419762   1.354934
     8  H    1.818052   2.615184   2.526625   3.945015   3.935735
     9  H    2.637746   3.344591   2.150356   1.079096   3.834361
    10  H    4.339824   2.066631   3.362031   3.832863   1.079835
    11  H    4.477139   3.793183   3.413891   2.110421   3.351364
    12  H    5.144992   3.332863   3.916577   3.398540   2.115879
    13  O    2.719975   2.848974   3.187832   4.625276   4.027472
    14  H    3.298301   3.612049   3.893421   5.322305   4.768623
    15  H    2.439847   1.018863   2.037842   3.285243   2.067043
                    6          7          8          9         10
     6  C    0.000000
     7  C    1.417461   0.000000
     8  H    4.910204   4.933363   0.000000
     9  H    2.138023   3.412356   4.413954   0.000000
    10  H    3.384055   2.146647   4.352054   4.910737   0.000000
    11  H    1.082227   2.162492   5.928421   2.465264   4.287493
    12  H    2.186350   1.077498   5.942476   4.312270   2.493982
    13  O    5.421264   5.196961   0.977143   5.223819   4.198120
    14  H    6.157484   5.945717   1.551102   5.859788   4.884138
    15  H    3.729534   3.279048   2.010171   4.164704   2.343947
                   11         12         13         14         15
    11  H    0.000000
    12  H    2.513212   0.000000
    13  O    6.481617   6.126374   0.000000
    14  H    7.209465   6.865462   0.957203   0.000000
    15  H    4.811759   4.172823   1.962822   2.721930   0.000000
 Stoichiometry    C5H7NO2
 Framework group  C1[X(C5H7NO2)]
 Deg. of freedom    39
 Full point group                 C1      NOp   1
 RotChk:  IX=0 Diff= 5.18D-04
 Largest Abelian subgroup         C1      NOp   1
 Largest concise Abelian subgroup C1      NOp   1
                         Standard orientation:                         
 ---------------------------------------------------------------------
 Center     Atomic      Atomic             Coordinates (Angstroms)
 Number     Number       Type             X           Y           Z
 ---------------------------------------------------------------------
      1          8           0        1.256292    1.382846    0.005358
      2          7           0        0.249981   -0.655545    0.011481
      3          6           0        0.210868    0.732924    0.006009
      4          6           0       -1.117819    1.285210    0.000399
      5          6           0       -0.841001   -1.456477    0.006371
      6          6           0       -2.210988    0.481498   -0.003583
      7          6           0       -2.089767   -0.930768   -0.001411
      8          1           0        2.694576    0.271876   -0.043582
      9          1           0       -1.193104    2.361672   -0.002604
     10          1           0       -0.644929   -2.518361    0.007945
     11          1           0       -3.197499    0.926444   -0.009410
     12          1           0       -2.953526   -1.574896   -0.006213
     13          8           0        3.097080   -0.617570   -0.084644
     14          1           0        3.823083   -0.618504    0.539180
     15          1           0        1.186808   -1.055955    0.021889
 ---------------------------------------------------------------------
 Rotational constants (GHZ):      4.0462021      1.4058873      1.0450861
 Leave Link  202 at Fri Aug 27 01:18:51 2021, MaxMem= 17179869184 cpu:         3.7
 (Enter /public3/home/sc51754/softwares/g09e01/l301.exe)
 Basis read from rwf:  (5D, 7F)
 No pseudopotential information found on rwf file.
 There are   385 symmetry adapted cartesian basis functions of A   symmetry.
 There are   338 symmetry adapted basis functions of A   symmetry.
   338 basis functions,   566 primitive gaussians,   385 cartesian basis functions
    30 alpha electrons       30 beta electrons
       nuclear repulsion energy       357.8390616592 Hartrees.
 IExCor= 4336 DFT=T Ex+Corr=M062X ExCW=0 ScaHFX=  0.540000
 ScaDFX=  1.000000  1.000000  1.000000  1.000000 ScalE2=  1.000000  1.000000
 IRadAn=      0 IRanWt=     -1 IRanGd=            0 ICorTp=0 IEmpDi=  4
 NAtoms=   15 NActive=   15 NUniq=   15 SFac= 1.00D+00 NAtFMM=   60 NAOKFM=F Big=F
 Integral buffers will be    131072 words long.
 Raffenetti 2 integral format.
 Two-electron integral symmetry is turned on.
 No density basis found on file   724.
 Leave Link  301 at Fri Aug 27 01:18:51 2021, MaxMem= 17179869184 cpu:         1.0
 (Enter /public3/home/sc51754/softwares/g09e01/l302.exe)
 NPDir=0 NMtPBC=     1 NCelOv=     1 NCel=       1 NClECP=     1 NCelD=      1
         NCelK=      1 NCelE2=     1 NClLst=     1 CellRange=     0.0.
 One-electron integrals computed using PRISM.
 NBasis=   338 RedAO= T EigKep=  1.55D-04  NBF=   338
 NBsUse=   338 1.00D-06 EigRej= -1.00D+00 NBFU=   338
 Precomputing XC quadrature grid using
 IXCGrd= 4 IRadAn=           0 IRanWt=          -1 IRanGd=           0 AccXCQ= 0.00D+00.
 Generated NRdTot=       0 NPtTot=           0 NUsed=           0 NTot=          32
 NSgBfM=   385   385   385   385   385 MxSgAt=    15 MxSgA2=    15.
 Leave Link  302 at Fri Aug 27 01:18:52 2021, MaxMem= 17179869184 cpu:        51.6
 (Enter /public3/home/sc51754/softwares/g09e01/l303.exe)
 DipDrv:  MaxL=1.
 Leave Link  303 at Fri Aug 27 01:18:52 2021, MaxMem= 17179869184 cpu:        13.4
 (Enter /public3/home/sc51754/softwares/g09e01/l401.exe)
 Initial guess from the checkpoint file:  "PY_H2O_M062X_PC2_OPT_FREQ.chk"
 B after Tr=     0.000000    0.000000   -0.000000
         Rot=    1.000000    0.000008    0.000072   -0.000123 Ang=   0.02 deg.
 Guess basis will be translated and rotated to current coordinates.
 JPrj=2 DoOrth=T DoCkMO=T.
 Generating alternative initial guess.
 ExpMin= 7.41D-02 ExpMax= 1.48D+04 ExpMxC= 5.05D+02 IAcc=2 IRadAn=         4 AccDes= 0.00D+00
 Harris functional with IExCor= 1009 and IRadAn=       4 diagonalized for initial guess.
 HarFok:  IExCor= 1009 AccDes= 0.00D+00 IRadAn=         4 IDoV= 1 UseB2=F ITyADJ=14
 ICtDFT=  3500011 ScaDFX=  1.000000  1.000000  1.000000  1.000000
 FoFCou: FMM=F IPFlag=           0 FMFlag=      100000 FMFlg1=           0
         NFxFlg=           0 DoJE=T BraDBF=F KetDBF=T FulRan=T
         wScrn=  0.000000 ICntrl=     500 IOpCl=  0 I1Cent=   200000004 NGrid=           0
         NMat0=    1 NMatS0=      1 NMatT0=    0 NMatD0=    1 NMtDS0=    0 NMtDT0=    0
 Petite list used in FoFCou.
 Harris En= -399.818869723660    
 Leave Link  401 at Fri Aug 27 01:18:54 2021, MaxMem= 17179869184 cpu:        95.6
 (Enter /public3/home/sc51754/softwares/g09e01/l502.exe)
 Closed shell SCF:
 Using DIIS extrapolation, IDIIS=  1040.
 Integral symmetry usage will be decided dynamically.
 Keep R1 ints in memory in canonical form, NReq=1670404686.
 IVT=      490665 IEndB=      490665 NGot= 17179869184 MDV= 15538220534
 LenX= 15538220534 LenY= 15538071868
 Requested convergence on RMS density matrix=1.00D-08 within 128 cycles.
 Requested convergence on MAX density matrix=1.00D-06.
 Requested convergence on             energy=1.00D-06.
 No special actions if energy rises.
 FoFCou: FMM=F IPFlag=           0 FMFlag=           0 FMFlg1=           0
         NFxFlg=           0 DoJE=F BraDBF=F KetDBF=F FulRan=T
         wScrn=  0.000000 ICntrl=     600 IOpCl=  0 I1Cent=           0 NGrid=           0
         NMat0=    1 NMatS0=  57291 NMatT0=    0 NMatD0=    1 NMtDS0=    0 NMtDT0=    0
 Symmetry not used in FoFCou.
 Integral accuracy reduced to 1.0D-05 until final iterations.

 Cycle   1  Pass 0  IDiag  1:
 E= -399.972015248974    
 DIIS: error= 2.94D-04 at cycle   1 NSaved=   1.
 NSaved= 1 IEnMin= 1 EnMin= -399.972015248974     IErMin= 1 ErrMin= 2.94D-04
 ErrMax= 2.94D-04  0.00D+00 EMaxC= 1.00D-01 BMatC= 8.39D-05 BMatP= 8.39D-05
 IDIUse=3 WtCom= 9.97D-01 WtEn= 2.94D-03
 Coeff-Com:  0.100D+01
 Coeff-En:   0.100D+01
 Coeff:      0.100D+01
 Gap=     0.662 Goal=   None    Shift=    0.000
 RMSDP=3.18D-05 MaxDP=9.65D-04              OVMax= 2.24D-03

 Cycle   2  Pass 0  IDiag  1:
 E= -399.972083570621     Delta-E=       -0.000068321647 Rises=F Damp=F
 DIIS: error= 1.43D-04 at cycle   2 NSaved=   2.
 NSaved= 2 IEnMin= 2 EnMin= -399.972083570621     IErMin= 2 ErrMin= 1.43D-04
 ErrMax= 1.43D-04  0.00D+00 EMaxC= 1.00D-01 BMatC= 7.01D-06 BMatP= 8.39D-05
 IDIUse=3 WtCom= 9.99D-01 WtEn= 1.43D-03
 Coeff-Com:  0.970D-01 0.903D+00
 Coeff-En:   0.000D+00 0.100D+01
 Coeff:      0.969D-01 0.903D+00
 Gap=     0.265 Goal=   None    Shift=    0.000
 RMSDP=9.64D-06 MaxDP=5.14D-04 DE=-6.83D-05 OVMax= 9.30D-04

 Initial convergence to 1.0D-05 achieved.  Increase integral accuracy.
 Cycle   3  Pass 1  IDiag  1:
 E= -399.972393722819     Delta-E=       -0.000310152198 Rises=F Damp=F
 DIIS: error= 1.59D-04 at cycle   1 NSaved=   1.
 NSaved= 1 IEnMin= 1 EnMin= -399.972393722819     IErMin= 1 ErrMin= 1.59D-04
 ErrMax= 1.59D-04  0.00D+00 EMaxC= 1.00D-01 BMatC= 2.14D-05 BMatP= 2.14D-05
 IDIUse=3 WtCom= 9.98D-01 WtEn= 1.59D-03
 Coeff-Com:  0.100D+01
 Coeff-En:   0.100D+01
 Coeff:      0.100D+01
 Gap=     0.265 Goal=   None    Shift=    0.000
 RMSDP=9.64D-06 MaxDP=5.14D-04 DE=-3.10D-04 OVMax= 9.23D-04

 Cycle   4  Pass 1  IDiag  1:
 E= -399.972401952907     Delta-E=       -0.000008230088 Rises=F Damp=F
 DIIS: error= 9.70D-05 at cycle   2 NSaved=   2.
 NSaved= 2 IEnMin= 2 EnMin= -399.972401952907     IErMin= 2 ErrMin= 9.70D-05
 ErrMax= 9.70D-05  0.00D+00 EMaxC= 1.00D-01 BMatC= 3.80D-06 BMatP= 2.14D-05
 IDIUse=1 WtCom= 1.00D+00 WtEn= 0.00D+00
 Coeff-Com:  0.217D+00 0.783D+00
 Coeff:      0.217D+00 0.783D+00
 Gap=     0.265 Goal=   None    Shift=    0.000
 RMSDP=5.76D-06 MaxDP=3.65D-04 DE=-8.23D-06 OVMax= 6.39D-04

 Cycle   5  Pass 1  IDiag  1:
 E= -399.972403545634     Delta-E=       -0.000001592727 Rises=F Damp=F
 DIIS: error= 5.14D-05 at cycle   3 NSaved=   3.
 NSaved= 3 IEnMin= 3 EnMin= -399.972403545634     IErMin= 3 ErrMin= 5.14D-05
 ErrMax= 5.14D-05  0.00D+00 EMaxC= 1.00D-01 BMatC= 1.67D-06 BMatP= 3.80D-06
 IDIUse=1 WtCom= 1.00D+00 WtEn= 0.00D+00
 Coeff-Com: -0.138D-01 0.395D+00 0.619D+00
 Coeff:     -0.138D-01 0.395D+00 0.619D+00
 Gap=     0.265 Goal=   None    Shift=    0.000
[...]
    A9        2.03154   0.00000   0.00000  -0.00001  -0.00001   2.03153
   A10        2.13706  -0.00000   0.00000  -0.00002  -0.00002   2.13704
   A11        2.11130   0.00000   0.00000   0.00002   0.00002   2.11132
   A12        2.01971  -0.00000   0.00000  -0.00001  -0.00001   2.01970
   A13        2.15218  -0.00000   0.00000  -0.00001  -0.00001   2.15217
   A14        2.11829   0.00000   0.00000   0.00001   0.00001   2.11830
   A15        2.08565  -0.00000   0.00000  -0.00002  -0.00002   2.08563
   A16        2.07924   0.00000   0.00000   0.00001   0.00001   2.07925
   A17        2.05447  -0.00000   0.00000  -0.00002  -0.00002   2.05446
   A18        2.10360   0.00000   0.00000   0.00001   0.00001   2.10360
   A19        2.12511   0.00000   0.00000   0.00001   0.00001   2.12513
   A20        2.61131  -0.00001   0.00000  -0.00027  -0.00027   2.61103
   A21        1.87432  -0.00000   0.00000   0.00002   0.00002   1.87433
   A22        1.40867   0.00001   0.00000   0.00021   0.00021   1.40888
   A23        2.54704   0.00000   0.00000   0.00119   0.00119   2.54823
   A24        2.50501  -0.00001   0.00000  -0.00019  -0.00019   2.50482
    D1        0.04506  -0.00000   0.00000  -0.00116  -0.00116   0.04390
    D2       -3.09557  -0.00000   0.00000  -0.00113  -0.00113  -3.09671
    D3        0.02268  -0.00000   0.00000  -0.00003  -0.00003   0.02265
    D4       -3.13623   0.00000   0.00000  -0.00012  -0.00012  -3.13635
    D5        0.00450  -0.00000   0.00000  -0.00014  -0.00014   0.00436
    D6        0.00497   0.00000   0.00000   0.00028   0.00028   0.00525
    D7       -3.13748   0.00000   0.00000   0.00026   0.00026  -3.13722
    D8       -0.00282   0.00000   0.00000   0.00015   0.00015  -0.00268
    D9        3.13783   0.00000   0.00000   0.00009   0.00009   3.13792
   D10        3.13918  -0.00000   0.00000  -0.00027  -0.00027   3.13890
   D11       -0.00335  -0.00000   0.00000  -0.00033  -0.00033  -0.00368
   D12       -0.12714   0.00000   0.00000   0.00211   0.00211  -0.12503
   D13        3.01408   0.00000   0.00000   0.00249   0.00249   3.01657
   D14        3.13705  -0.00000   0.00000   0.00006   0.00006   3.13712
   D15       -0.00213  -0.00000   0.00000   0.00004   0.00004  -0.00209
   D16       -0.00363   0.00000   0.00000   0.00009   0.00009  -0.00354
   D17        3.14037   0.00000   0.00000   0.00007   0.00007   3.14044
   D18        0.00123  -0.00000   0.00000  -0.00004  -0.00004   0.00119
   D19       -3.13926   0.00000   0.00000  -0.00002  -0.00002  -3.13928
   D20        3.14027  -0.00000   0.00000  -0.00002  -0.00002   3.14025
   D21       -0.00022   0.00000   0.00000  -0.00000  -0.00000  -0.00022
   D22       -0.00002  -0.00000   0.00000  -0.00008  -0.00008  -0.00010
   D23        3.14114  -0.00000   0.00000  -0.00007  -0.00007   3.14107
   D24       -3.14060  -0.00000   0.00000  -0.00003  -0.00003  -3.14063
   D25        0.00056  -0.00000   0.00000  -0.00002  -0.00002   0.00054
   D26        0.00072   0.00000   0.00000   0.00003   0.00003   0.00075
   D27       -3.14043   0.00000   0.00000   0.00002   0.00002  -3.14041
   D28        3.14121  -0.00000   0.00000   0.00002   0.00002   3.14123
   D29        0.00006  -0.00000   0.00000   0.00001   0.00001   0.00007
   D30       -2.62115  -0.00000   0.00000  -0.00019  -0.00019  -2.62133
   D31       -0.07413   0.00000   0.00000   0.00115   0.00115  -0.07298
   D32        0.14855  -0.00000   0.00000  -0.00258  -0.00258   0.14597
   D33        2.02276  -0.00000   0.00000  -0.00189  -0.00189   2.02087
         Item               Value     Threshold  Converged?
 Maximum Force            0.000025     0.000450     YES
 RMS     Force            0.000005     0.000300     YES
 Maximum Displacement     0.002040     0.001800     NO 
 RMS     Displacement     0.000649     0.001200     YES
 Predicted change in Energy=-3.442937D-08
 GradGradGradGradGradGradGradGradGradGradGradGradGradGradGradGradGradGrad

 Leave Link  103 at Fri Aug 27 01:27:59 2021, MaxMem= 17179869184 cpu:        54.2
 (Enter /public3/home/sc51754/softwares/g09e01/l9999.exe)
 1\1\GINC-T1413\Freq\RM062X\Gen\C5H7N1O2\SC51754\27-Aug-2021\0\\#P Geom
 =AllCheck Guess=TCheck SCRF=Check GenChk RM062X/ChkBas Freq\\PY_H2O_M0
 62X_PC2_OPT_FREQ\\0,1\O,1.2509305723,1.3856024631,0.0389387901\N,0.246
 7995088,-0.655034071,0.0362120967\C,0.2088412856,0.7320496695,0.025841
 7922\C,-1.1227803282,1.2854894505,-0.0017627711\C,-0.8461182894,-1.455
 8876066,0.0173055233\C,-2.2155648849,0.483265345,-0.01984974\C,-2.0942
 159538,-0.931049404,-0.0108862042\H,2.6947818023,0.2742966203,-0.00577
 90266\H,-1.1948177405,2.3622491574,-0.0093886654\H,-0.6492781871,-2.51
 77269915,0.0253280679\H,-3.2024431437,0.9273413593,-0.0426310476\H,-2.
 9582841915,-1.5745068923,-0.0262078515\O,3.0607542337,-0.6300526848,-0
 .0477262137\H,3.899134815,-0.620896009,0.4130279807\H,1.1822135011,-1.
 0588744058,0.0595112693\\Version=EM64L-G09RevE.01\State=1-A\HF=-399.97
 24963\RMSD=3.537e-09\RMSF=1.022e-05\ZeroPoint=0.1198464\Thermal=0.1277
 862\Dipole=-0.8494978,-0.8531196,0.3269331\DipoleDeriv=-1.8474736,-0.6
 349816,-0.0189025,-0.4913878,-0.8712098,-0.0102287,-0.0173329,-0.01368
 91,-0.4115592,-0.8040268,0.2701839,-0.012132,-0.6868838,-0.579809,-0.0
 084666,-0.0125543,0.0101032,-0.1929147,1.8978341,0.8726979,0.0245054,0
 .8560178,0.9424037,0.0094601,0.0202692,0.007802,0.2660801,-0.7061637,-
 0.5027715,-0.0073433,0.0906126,-0.0245366,0.0005115,-0.0085571,-0.0102
 499,-0.1816581,0.7316769,-0.362798,0.0165121,0.2868857,0.1073845,0.005
 8212,0.0118801,-0.0068734,-0.001315,0.2687125,0.1034974,0.006785,0.132
 3067,0.6457144,-0.0012637,0.0057095,-0.0014536,-0.0726439,-0.2895369,0
 .3846008,-0.0030471,0.0312696,-0.5103963,0.0032729,-0.0004412,0.009947
 8,-0.2109834,0.7662942,-0.1476493,-0.023746,-0.4153667,0.3491558,-0.03
 12391,-0.0371071,-0.0233058,0.2607604,0.0601742,-0.0086319,-0.001843,0
 .0093743,-0.0028859,0.000914,-0.0013363,0.0007804,0.1503938,0.0633586,
 0.0180043,-0.0017421,-0.0015417,-0.0079802,0.0010775,-0.0017231,0.0005
 405,0.1405154,-0.0379384,0.0583337,-0.0034785,0.0579612,0.0556483,0.00
 14343,-0.0035326,0.001332,0.125361,0.0226082,-0.0477812,-0.0027071,-0.
 049127,0.0167424,-0.0004345,-0.003072,-0.0006146,0.1650181,-1.0256289,
 0.1318656,0.0821883,0.3204636,-0.5993177,0.0708338,0.1005071,0.0469357
 ,-0.5912124,0.2552275,-0.0112749,-0.0606737,-0.067063,0.29027,-0.04009
 4,-0.0581522,-0.0223227,0.3066182,0.6448824,-0.1232951,0.0056246,-0.07
 35214,0.1888164,-0.0015988,0.005443,0.0010674,0.2475399\Polar=98.12255
 96,6.0528836,82.6947712,1.4745471,-0.1960012,43.584079\PG=C01 [X(C5H7N
 1O2)]\NImag=0\\0.55757378,0.28294785,0.30069774,0.00650887,0.00316231,
 0.03918868,0.01585717,-0.06758899,0.00048949,0.85904710,-0.04712929,-0
 .07360682,-0.00014707,-0.00857406,0.67394094,0.00072764,-0.00055584,0.
 01842644,0.01665102,-0.00407209,0.08995965,-0.48147703,-0.22693357,-0.
 00516229,-0.17720014,0.01361805,-0.00274343,0.87369196,-0.21732813,-0.
 23437745,-0.00274404,0.06056170,-0.21402143,0.00197490,0.13363550,0.63
 061821,-0.00538530,-0.00293730,-0.07632486,-0.00261743,0.00138220,-0.0
 6465875,0.01090488,-0.00043908,0.20748342,-0.08018400,-0.00524018,-0.0
 0167924,0.03204644,0.04892670,0.00034157,-0.19958133,0.04536668,-0.002
 58501,0.68129402,-0.03005635,0.02148673,-0.00042638,0.03771124,-0.0206
 8708,0.00096251,0.07541883,-0.15328063,0.00174050,0.08627116,0.7768354
 9,-0.00159302,0.00012264,0.02143280,0.00028325,0.00125908,0.00764868,-
 0.00273489,0.00107276,-0.07993353,0.01049894,-0.00163123,0.11785200,-0
 .01603398,0.01410302,-0.00055815,-0.27401737,-0.06245821,-0.00424008,0
 .05544906,-0.08096139,0.00160217,-0.05816812,-0.00523932,-0.00115498,0
 .76705084,-0.00222433,-0.00021935,0.00002376,-0.12084570,-0.21618079,-
 0.00150638,-0.01783472,-0.04376631,-0.00017667,-0.00607908,-0.00246641
 ,-0.00014064,-0.07875367,0.77437591,-0.00047145,0.00033022,0.00601519,
 -0.00414762,-0.00057921,-0.04966328,0.00134952,-0.00135025,-0.00319139
 ,-0.00117311,-0.00007345,-0.00052336,0.01375379,-0.00460262,0.14696923
 ,0.00414552,0.00548210,-0.00001989,-0.01116644,-0.00841035,-0.00008843
 ,-0.04480550,-0.00943474,-0.00083945,-0.34008693,-0.17359641,-0.004822
 85,0.01708134,0.03595327,0.00004476,0.78044058,0.02637598,-0.00249173,
 0.00049306,-0.04115399,-0.04419055,-0.00070752,-0.03963392,0.05976451,
 -0.00107223,-0.11974404,-0.24138771,-0.00141703,0.08391825,-0.01802985
 ,0.00186063,0.02375627,0.66508642,-0.00014338,0.00013503,0.00420207,0.
 00010499,0.00001845,-0.00589741,-0.00068344,-0.00043366,-0.00015147,-0
 .00519539,-0.00260526,-0.05573508,-0.00023576,0.00088086,0.00774627,0.
 01304245,-0.00187408,0.14408211,0.00793527,-0.00655142,0.00019101,-0.0
 7943309,-0.03621641,-0.00184331,-0.02529991,0.04063869,-0.00054051,0.0
 4010946,-0.02520137,0.00080455,-0.38131721,0.14128445,-0.00761236,-0.1
 2522625,-0.01703861,-0.00126227,0.80932096,-0.01795323,-0.00101719,-0.
 00032525,0.00797761,0.04715460,0.00004582,0.03313035,-0.03054091,0.000
 75253,-0.05629998,-0.03482845,-0.00094374,0.08551670,-0.17942397,0.002
 50924,0.04266212,-0.28685172,0.00175672,0.02769829,0.66224734,0.000276
 47,-0.00010460,-0.00023112,-0.00195541,-0.00091112,0.01246883,-0.00055
 475,0.00090526,-0.00784159,0.00098879,-0.00033330,0.00717292,-0.007432
 57,0.00370098,-0.06579685,-0.00158113,0.00052568,-0.06172328,0.0148069
 7,-0.00204834,0.11919302,0.01552812,-0.00208856,-0.00069155,-0.0009026
 2,0.00619401,-0.00030568,-0.01903985,-0.01137497,-0.00008718,0.0050149
 9,0.00139352,0.00022215,0.00011650,-0.00049458,-0.00003067,-0.00052456
 ,-0.00257640,0.00001527,-0.00003205,0.00197426,0.00000860,0.10271093,-
 0.01590585,-0.01106713,0.00057737,0.00181268,-0.00451450,0.00031567,0.
 01169848,0.01659970,0.00013680,-0.00584866,-0.00203478,-0.00022830,-0.
 00215979,-0.00175439,-0.00003830,0.00072498,0.00368814,-0.00002218,0.0
 0148856,-0.00256412,0.00003198,-0.13185028,0.40201375,0.00009608,0.000
 05707,-0.00812379,-0.00055156,-0.00018567,-0.00103324,-0.00017492,-0.0
 0013294,0.00096855,0.00001973,-0.00000387,0.00095519,0.00012896,0.0001
 8824,-0.00019460,-0.00006153,-0.00010069,0.00010456,-0.00014732,0.0000
 6496,0.00008261,0.01174169,0.01953238,0.02830704,0.00166766,-0.0028425
 1,0.00007858,-0.00606297,0.00388766,-0.00023409,0.00430742,0.02986432,
 -0.00015819,-0.05863252,0.02196262,-0.00055499,-0.00231382,-0.00103625
 ,-0.00002872,0.00655028,-0.02694044,0.00023014,-0.00351027,-0.00259371
 ,-0.00025000,-0.00013243,0.00021269,-0.00000781,0.05615541,0.00014334,
 0.00166100,-0.00002022,0.00236457,-0.00077156,0.00007724,-0.00426787,-
 0.00913757,-0.00000223,0.02423428,-0.34708813,0.00202405,0.00096964,0.
 00105593,0.00001319,0.00325082,-0.01205549,0.00014449,-0.00348963,0.00
 129930,-0.00001951,0.00004015,-0.00006913,0.00000767,-0.02303533,0.365
 31078,0.00009734,-0.00008487,-0.00242154,-0.00022595,0.00008122,0.0046
 0835,-0.00000446,0.00066605,0.00293302,-0.00054742,0.00203957,-0.03437
 212,-0.00001175,-0.00002079,-0.00064396,0.00004108,-0.00049453,0.00303
 113,-0.00026624,-0.00000632,0.00970385,-0.00001839,0.00001206,-0.00001
 179,0.00073659,-0.00216571,0.02446403,-0.00103024,-0.00227822,0.000012
 95,0.00517105,-0.03531696,0.00020726,-0.00359454,0.00139294,-0.0002136
 4,-0.00032350,-0.00055286,-0.00000029,-0.07250899,0.06007950,-0.000947
 83,-0.00565569,0.00155492,-0.00030333,0.00341581,0.02736712,-0.0001918
 7,0.00035602,-0.00028954,0.00000687,0.00016776,0.00000673,0.00002789,0
 .07216588,-0.00064572,-0.00185661,0.00001273,0.00131380,-0.01996508,0.
 00011884,-0.00273116,0.00469285,-0.00009097,0.00028613,0.00062290,0.00
 000253,0.05308932,-0.33568808,0.00224871,0.00227924,0.00045301,0.00007
 300,-0.00090724,-0.00484713,0.00003277,0.00027232,-0.00018717,-0.00000
 684,0.00004322,-0.00007882,-0.00000332,-0.05304564,0.35623269,-0.00002
 754,-0.00004284,-0.00010252,0.00007667,-0.00054582,0.00288823,-0.00014
 501,0.00001464,0.00565094,-0.00001941,-0.00001002,-0.00018355,-0.00093
 634,0.00225894,-0.04088003,-0.00030880,0.00009112,0.00828509,-0.000075
 43,0.00063603,0.00745825,-0.00001402,-0.00000318,-0.00001127,0.0000247
 8,-0.00000530,-0.00122081,0.00121294,-0.00236797,0.02640848,-0.0020307
 5,0.00038329,0.00001997,0.00015000,-0.00047875,0.00002315,-0.00053858,
 -0.00395574,-0.00025899,-0.01892609,0.01269757,-0.00060447,0.00158613,
 0.00032579,-0.00007224,-0.29001674,0.10354874,-0.00572194,0.00185852,-
 0.00119132,-0.00005523,0.00023182,-0.00018972,-0.00000971,0.00105974,-
 0.00020560,0.00014907,0.00002643,-0.00012871,0.00001213,0.30630344,-0.
 00090457,0.00067682,-0.00002259,-0.00117962,0.00039184,-0.00003307,-0.
 00300439,-0.00293332,0.00001690,-0.01852922,0.01210077,-0.00042005,-0.
 00000442,-0.00676810,0.00005551,0.10460892,-0.10680208,0.00240778,0.02
 891044,-0.00655901,0.00064348,0.00006174,-0.00008710,-0.00000351,0.000
 39520,0.00072755,-0.00002474,0.00155735,-0.00038008,0.00003553,-0.1113
 3265,0.10841658,-0.00000576,-0.00002684,-0.00225004,0.00002320,-0.0000
 2681,-0.00094033,-0.00023170,0.00001462,0.01248345,-0.00039186,0.00026
 919,0.00734021,-0.00006646,0.00004755,0.00490908,-0.00578852,0.0023740
 9,-0.04341803,-0.00019149,0.00002586,0.00475547,-0.00001358,0.00001321
 ,-0.00011789,0.00013620,-0.00004352,-0.00610583,0.00000467,-0.00000286
 ,-0.00049021,0.00643454,-0.00262521,0.02683662,0.00033488,-0.00019053,
 0.00002060,-0.00373392,0.00429826,-0.00027386,-0.00023517,0.00093506,-
 0.00001109,0.00083537,0.00151915,-0.00007799,-0.01734816,-0.02037665,-
 0.00028176,0.00783762,0.00469020,0.00013905,-0.24934313,-0.14151594,-0
 .00399681,0.00004387,0.00010300,-0.00001795,0.00025551,0.00028490,-0.0
 0000680,0.00064088,0.00019429,0.00012022,0.00039576,-0.00057583,0.0000
 6206,0.26076459,-0.00039481,0.00055070,-0.00001187,0.00392932,-0.00003
 518,0.00012086,0.00128296,-0.00155017,0.00003181,0.00228724,-0.0049272
 7,0.00008848,0.01165901,0.01147620,0.00018612,-0.02584430,-0.01195466,
 -0.00048907,-0.14385391,-0.16399611,-0.00233276,0.00004360,-0.00012361
 ,0.00000855,-0.00122168,-0.00051938,-0.00001913,-0.00049455,0.00049429
 ,-0.00003400,0.00036373,0.00107086,-0.00000763,0.15177551,0.16887179,0
 .00002323,-0.00001895,-0.00057869,-0.00028352,0.00011814,0.00818786,-0
 .00000825,0.00003073,-0.00024042,-0.00007235,0.00007533,0.00418407,-0.
 00039212,-0.00047193,-0.00058956,0.00027480,0.00014709,-0.00002609,-0.
 00401248,-0.00229560,-0.03045587,0.00000386,0.00000143,0.00003073,-0.0
 0000226,0.00001114,0.00048351,0.00012224,-0.00001404,-0.00504377,0.000
 05615,-0.00002578,-0.00227898,0.00433537,0.00245385,0.02483829,-0.0128
 2789,0.01264860,0.00033740,-0.01248231,-0.00459385,-0.00035089,0.00392
 703,0.00112598,0.00020373,-0.00112721,-0.00005809,-0.00003780,0.001824
 27,0.00448939,-0.00000524,-0.00014979,-0.00018898,-0.00001787,-0.00205
 315,-0.00036628,-0.00002277,-0.09091815,0.15541911,-0.00261982,-0.0001
 2959,0.00009948,0.00001204,-0.00005857,-0.00023818,0.00000698,-0.00018
 435,-0.00001450,0.00000003,-0.00032791,0.00013089,-0.00000168,0.537345
 33,0.02274804,-0.00252575,0.00048325,-0.00086077,0.00534946,-0.0008085
 6,-0.01071418,-0.01194566,-0.00011728,0.00421415,0.00172050,0.00002737
 ,0.00143673,0.00032898,-0.00002707,-0.00048550,-0.00261566,0.00001002,
 -0.00074213,0.00195239,-0.00000646,0.10853257,-0.40291324,-0.04151847,
 -0.00020506,0.00006053,-0.00000614,0.00036449,0.00019558,0.00001849,0.
 00015224,0.00008239,0.00000951,-0.00001358,0.00006993,0.00002220,-0.14
 311017,0.45701009,-0.00069766,0.00108258,0.00537166,-0.00199472,-0.000
 29877,0.00253318,0.00038402,-0.00003320,-0.00068277,-0.00008577,0.0000
 4600,-0.00059407,-0.00029229,0.00021928,0.00022120,0.00005145,0.000043
 58,0.00002148,0.00000161,-0.00017612,-0.00012075,-0.01263947,-0.017480
 70,-0.02305329,0.00001342,-0.00000239,-0.00001700,-0.00002954,-0.00004
 671,-0.00006768,0.00000343,0.00000222,0.00006334,-0.00002046,0.0000071
 1,-0.00007692,0.23795366,0.03806740,0.15050487,0.00079573,0.00099396,0
 .00045704,-0.00002353,-0.00050286,0.00025590,-0.00089776,-0.00058834,-
 0.00011325,0.00025989,0.00009268,-0.00007202,-0.00024612,0.00024059,0.
 00001690,-0.00002876,-0.00012668,0.00000572,-0.00003039,-0.00003346,-0
 .00001160,-0.01414693,-0.00730398,-0.00953152,-0.00000531,0.00001620,-
 0.00000522,-0.00002036,-0.00003167,-0.00001308,0.00001027,-0.00000380,
 0.00000921,-0.00001850,0.00001687,-0.00000996,-0.42318742,0.01804891,-
 0.22445999,0.43804706,0.00287104,-0.00240167,-0.00092685,-0.00218247,0
 .00043352,0.00035013,-0.00117898,-0.00129341,-0.00003874,0.00028101,0.
 00020654,0.00011470,0.00031211,0.00065646,0.00002527,-0.00001908,-0.00
 020643,0.00000515,-0.00033152,0.00004394,-0.00000932,0.03561756,0.0054
 5456,0.02161846,-0.00004378,0.00002208,-0.00000431,-0.00000402,-0.0000
 2990,-0.00002288,0.00000194,0.00000449,-0.00001542,-0.00005041,0.00002
 539,-0.00001364,-0.02676700,-0.04302298,-0.02224460,-0.01148128,0.0400
 7473,0.00073458,-0.00098237,0.00001831,0.00207964,0.00033940,0.0002753
 8,-0.00020776,0.00013432,-0.00005914,0.00005915,-0.00004886,-0.0000500
 9,0.00006711,-0.00037732,0.00002196,0.00000405,0.00003469,-0.00000018,
 0.00015297,0.00008507,-0.00003099,0.00157089,-0.00263430,-0.00038491,0
 .00000477,-0.00000585,0.00001706,0.00000885,0.00004216,0.00004902,0.00
 000607,-0.00000102,0.00001372,0.00003467,-0.00001351,0.00000581,-0.236
 74562,0.00183341,-0.12988929,0.23416210,0.00221180,0.13029873,-0.01025
 423,-0.00284486,-0.00000480,-0.34724938,0.12675606,-0.00812676,0.01529
 433,0.01012243,0.00009926,-0.00253048,-0.00236238,-0.00015562,-0.02115
 437,0.00527200,-0.00039397,0.00160533,0.00355870,0.00002576,0.00360543
 ,-0.00637253,-0.00002868,0.00169433,-0.00791168,0.00112882,0.00062312,
 -0.00041168,0.00002222,0.00124807,0.00025000,0.00008590,0.00007440,0.0
 0001538,0.00001945,-0.00010167,0.00032013,-0.00003303,0.00034969,0.000
 63428,0.00181230,-0.00050788,0.00297488,-0.00193145,0.35730331,-0.0025
 4398,0.00449071,-0.00012821,0.12671469,-0.13329740,0.00371752,0.037514
 62,-0.00882841,0.00081375,-0.00012619,-0.00627246,0.00006940,-0.021427
 98,0.01640377,-0.00055801,-0.00092735,-0.00240621,-0.00000726,-0.00568
 820,-0.00206898,-0.00007473,-0.00574495,-0.00244100,0.00047466,0.00155
 306,-0.00041710,0.00003097,-0.00034128,0.00034156,-0.00002273,0.000009
 19,0.00005840,-0.00000574,-0.00107740,0.00054722,-0.00001997,0.0014236
 1,-0.00374656,0.00081432,0.00066287,0.00003268,-0.00061761,-0.13000073
 ,0.13760378,-0.00014010,-0.00013623,-0.00462259,-0.00793205,0.00356808
 ,-0.02480360,0.00001248,0.00031991,0.00356455,-0.00015862,-0.00000072,
 0.00480594,-0.00023153,-0.00002326,-0.00439989,0.00005202,0.00009614,-
 0.00052116,-0.00000572,-0.00008085,0.00536549,0.00023807,-0.00021393,0
 .00248210,0.00001158,-0.00001304,-0.00044789,0.00008284,0.00000197,-0.
 00274015,0.00001806,-0.00000544,-0.00080057,-0.00002524,0.00001119,0.0
 0156006,0.00128784,0.00201233,-0.00421396,-0.00069023,-0.00104977,-0.0
 0028539,0.00748058,-0.00448636,0.02505706\\0.00001652,0.00002828,0.000
 00573,-0.00000436,0.00000328,0.00000568,-0.00002528,-0.00003175,-0.000
 00440,0.00000282,0.00000006,0.00000437,-0.00000287,-0.00000353,-0.0000
 1089,-0.00000359,-0.00000412,-0.00000238,0.00000752,-0.00000265,0.0000
 0093,-0.00001306,0.00000095,0.00000827,-0.00000474,-0.00000257,0.00000
 827,0.00000568,-0.00000053,-0.00000559,-0.00000212,-0.00000821,0.00000
 399,0.00000279,-0.00000650,-0.00000241,-0.00000095,0.00000328,-0.00001
 231,-0.00000094,0.00000579,-0.00000203,0.00002257,0.00001821,0.0000027
 8\\\@


 AND HERE I AM, FOR ALL MY LORE,
 THE WRETCHED FOOL I WAS BEFORE.
 CALLED MASTER OF ARTS, AND DOCTOR TO BOOT,
 FOR TEN YEARS ALMOST I CONFUTE
 AND UP AND DOWN, WHEREVER IT GOES
 I DRAG MY STUDENTS BY THE NOSE --
 AND SEE THAT FOR ALL OUR SCIENCE AND ART
 WE CAN KNOW NOTHING.  IT BURNS MY HEART.

                                       -- FAUST
 Job cpu time:       0 days  1 hours 19 minutes  8.0 seconds.
 File lengths (MBytes):  RWF=    137 Int=      0 D2E=      0 Chk=      9 Scr=      1
 Normal termination of Gaussian 09 at Fri Aug 27 01:27:59 2021.
