 Entering Gaussian System, Link 0=g09
 AtFile(1): pc-2.gbs
            -H     0
            S    4   1.00
                  0.754230D+02           0.240650D-02
                  0.113500D+02           0.184870D-01
                  0.259930D+01           0.897420D-01
                  0.735130D+00           0.281110D+00
            S    1   1.00
                  0.231670D+00           0.100000D+01
            S    1   1.00
                  0.741470D-01           0.100000D+01
            P    1   1.00
                  0.160000D+01           0.100000D+01
            P    1   1.00
                  0.450000D+00           0.100000D+01
            D    1   1.00
                  0.125000D+01           0.100000D+01
            ****
            -C     0
            S    7   1.00
                  0.785710D+04           0.568250D-03
                  0.117870D+04           0.439150D-02
                  0.268320D+03           0.225040D-01
                  0.759480D+02           0.866530D-01
                  0.245590D+02           0.244050D+00
                  0.862120D+01           0.441480D+00
                  0.312780D+01           0.353320D+00
            S    7   1.00
                  0.117870D+04          -0.594920D-06
                  0.268320D+03          -0.627480D-04
                  0.759480D+02          -0.757730D-03
                  0.245590D+02          -0.733080D-02
                  0.862120D+01          -0.389320D-01
                  0.312780D+01          -0.889080D-01
                  0.822020D+00           0.216890D+00
            S    1   1.00
                  0.330170D+00           0.100000D+01
            S    1   1.00
                  0.114630D+00           0.100000D+01
            P    4   1.00
                  0.337750D+02           0.602940D-02
                  0.767660D+01           0.432280D-01
                  0.223570D+01           0.163010D+00
                  0.764470D+00           0.365040D+00
            P    1   1.00
                  0.262320D+00           0.100000D+01
            P    1   1.00
                  0.846380D-01           0.100000D+01
            D    1   1.00
                  0.140000D+01           0.100000D+01
            D    1   1.00
                  0.450000D+00           0.100000D+01
            F    1   1.00
                  0.950000D+00           0.100000D+01
            ****
            -N     0
            S    7   1.00
                  0.111010D+05           0.545700D-03
                  0.166530D+04           0.421810D-02
                  0.379080D+03           0.216450D-01
                  0.107300D+03           0.837760D-01
                  0.347470D+02           0.238810D+00
                  0.122490D+02           0.439940D+00
                  0.447430D+01           0.363640D+00
            S    7   1.00
                  0.166530D+04          -0.150060D-05
                  0.379080D+03          -0.587530D-04
                  0.107300D+03          -0.774530D-03
                  0.347470D+02          -0.721610D-02
                  0.122490D+02          -0.393380D-01
                  0.447430D+01          -0.906110D-01
                  0.124040D+01           0.198820D+00
            S    1   1.00
                  0.487430D+00           0.100000D+01
            S    1   1.00
                  0.164840D+00           0.100000D+01
            P    4   1.00
                  0.479340D+02           0.617060D-02
                  0.109990D+02           0.442600D-01
                  0.324720D+01           0.168250D+00
                  0.111140D+01           0.368480D+00
            P    1   1.00
                  0.379880D+00           0.100000D+01
            P    1   1.00
                  0.120680D+00           0.100000D+01
            D    1   1.00
                  0.180000D+01           0.100000D+01
            D    1   1.00
                  0.550000D+00           0.100000D+01
            F    1   1.00
                  0.102000D+01           0.100000D+01
            ****
            -O     0
            S    7   1.00
                  0.147820D+05           0.535190D-03
                  0.221730D+04           0.413750D-02
                  0.504740D+03           0.212450D-01
                  0.142870D+03           0.824530D-01
                  0.463000D+02           0.236710D+00
                  0.163370D+02           0.440390D+00
                  0.598280D+01           0.364650D+00
            S    7   1.00
                  0.221730D+04          -0.192750D-05
                  0.504740D+03          -0.579640D-04
                  0.142870D+03          -0.794940D-03
                  0.463000D+02          -0.731250D-02
                  0.163370D+02          -0.405740D-01
                  0.598280D+01          -0.915940D-01
                  0.167180D+01           0.209400D+00
            S    1   1.00
                  0.646620D+00           0.100000D+01
            S    1   1.00
                  0.216690D+00           0.100000D+01
            P    4   1.00
                  0.604240D+02           0.689490D-02
                  0.139350D+02           0.490050D-01
                  0.415310D+01           0.182550D+00
                  0.141580D+01           0.376330D+00
            P    1   1.00
                  0.475490D+00           0.100000D+01
            P    1   1.00
                  0.145290D+00           0.100000D+01
            D    1   1.00
                  0.220000D+01           0.100000D+01
            D    1   1.00
                  0.650000D+00           0.100000D+01
            F    1   1.00
                  0.110000D+01           0.100000D+01
            ****
 Initial command:
 /public3/home/sc51754/softwares/g09e01/l1.exe "./Gau-36226.inp" -scrdir="./"
 Entering Link 1 = /public3/home/sc51754/softwares/g09e01/l1.exe PID=     36227.
  
 Copyright (c) 1988,1990,1992,1993,1995,1998,2003,2009,2015,
            Gaussian, Inc.  All Rights Reserved.
  
 This is part of the Gaussian(R) 09 program.  It is based on
 the Gaussian(R) 03 system (copyright 2003, Gaussian, Inc.),
 the Gaussian(R) 98 system (copyright 1998, Gaussian, Inc.),
 the Gaussian(R) 94 system (copyright 1995, Gaussian, Inc.),
 the Gaussian 92(TM) system (copyright 1992, Gaussian, Inc.),
 the Gaussian 90(TM) system (copyright 1990, Gaussian, Inc.),
 the Gaussian 88(TM) system (copyright 1988, Gaussian, Inc.),
 the Gaussian 86(TM) system (copyright 1986, Carnegie Mellon
 University), and the Gaussian 82(TM) system (copyright 1983,
 Carnegie Mellon University). Gaussian is a federally registered
 trademark of Gaussian, Inc.
  
 This software contains proprietary and confidential information,
 including trade secrets, belonging to Gaussian, Inc.
  
 This software is provided under written license and may be
 used, copied, transmitted, or stored only in accord with that
 written license.
  
 The following legend is applicable only to US Government
 contracts under FAR:
  
                    RESTRICTED RIGHTS LEGEND
  
 Use, reproduction and disclosure by the US Government is
 subject to restrictions as set forth in subparagraphs (a)
 and (c) of the Commercial Computer Software - Restricted
 Rights clause in FAR 52.227-19.
  
 Gaussian, Inc.
 340 Quinnipiac St., Bldg. 40, Wallingford CT 06492
  
  
 ---------------------------------------------------------------
 Warning -- This program may not be used in any manner that
 competes with the business of Gaussian, Inc. or will provide
 assistance to any competitor of Gaussian, Inc.  The licensee
 of this program is prohibited from giving any competitor of
 Gaussian, Inc. access to this program.  By using this program,
 the user acknowledges that Gaussian, Inc. is engaged in the
 business of creating and licensing software in the field of
 computational chemistry and represents and warrants to the
 licensee that it is not a competitor of Gaussian, Inc. and that
 it will not use this program in any manner prohibited above.
 ---------------------------------------------------------------
  

 Cite this work as:
 Gaussian 09, Revision E.01,
 M. J. Frisch, G. W. Trucks, H. B. Schlegel, G. E. Scuseria, 
 M. A. Robb, J. R. Cheeseman, G. Scalmani, V. Barone, B. Mennucci, 
 G. A. Petersson, H. Nakatsuji, M. Caricato, X. Li, H. P. Hratchian, 
 A. F. Izmaylov, J. Bloino, G. Zheng, J. L. Sonnenberg, M. Hada, 
 M. Ehara, K. Toyota, R. Fukuda, J. Hasegawa, M. Ishida, T. Nakajima, 
 Y. Honda, O. Kitao, H. Nakai, T. Vreven, J. A. Montgomery, Jr., 
 J. E. Peralta, F. Ogliaro, M. Bearpark, J. J. Heyd, E. Brothers, 
 K. N. Kudin, V. N. Staroverov, T. Keith, R. Kobayashi, J. Normand, 
 K. Raghavachari, A. Rendell, J. C. Burant, S. S. Iyengar, J. Tomasi, 
 M. Cossi, N. Rega, J. M. Millam, M. Klene, J. E. Knox, J. B. Cross, 
 V. Bakken, C. Adamo, J. Jaramillo, R. Gomperts, R. E. Stratmann, 
 O. Yazyev, A. J. Austin, R. Cammi, C. Pomelli, J. W. Ochterski, 
 R. L. Martin, K. Morokuma, V. G. Zakrzewski, G. A. Voth, 
 P. Salvador, J. J. Dannenberg, S. Dapprich, A. D. Daniels, 
 O. Farkas, J. B. Foresman, J. V. Ortiz, J. Cioslowski, 
 and D. J. Fox, Gaussian, Inc., Wallingford CT, 2013.
 
 ******************************************
 Gaussian 09:  EM64L-G09RevE.01 30-Nov-2015
                28-Aug-2021 
 ******************************************
 %nprocshared=64
 Will use up to   64 processors via shared memory.
 %mem=128GB
 %chk=TST_H2O_M062X.chk
 ----------------------------------------------------------------------
 #p opt=(calcfc,qst3,maxcycle=300,cartesian) freq M062X/gen int=acc2e=1
 2 scf=(novaracc,noincfock)
 ----------------------------------------------------------------------
 1/5=1,6=300,10=4,14=-1,18=20,26=3,27=203,38=1/1,3;
 2/9=110,12=2,17=6,18=5,40=1/2;
 3/5=7,11=2,16=1,25=1,30=1,71=2,74=-55,140=1/1,2,3;
 4//1;
 5/5=100002,38=1,87=12/2;
 8/6=4,10=90,11=11,87=12/1;
 11/6=1,8=1,9=11,15=111,16=1,87=12/1,2,10;
 10/6=1,13=1,87=12/2;
 6/7=2,8=2,9=2,10=2,28=1/1;
 7/10=1,18=20,25=1,87=12/1,2,3,16;
 1/5=1,6=300,10=4,14=-1,18=20,26=3,27=203/3(2);
 2/9=110/2;
 99//99;
 2/9=110/2;
 3/5=7,6=1,11=2,16=1,25=1,30=1,71=1,74=-55,82=7/1,2,3;
 4/5=5,16=3,69=1/1;
 5/5=100002,38=1,87=12/2;
 7/87=12/1,2,3,16;
 1/5=1,6=300,14=-1,18=20,26=3,27=203/3(-5);
 2/9=110/2;
 6/7=2,8=2,9=2,10=2,19=2,28=1/1;
 99/9=1/99;
 Leave Link    1 at Sat Aug 28 15:08:00 2021, MaxMem= 17179869184 cpu:         4.4
 (Enter /public3/home/sc51754/softwares/g09e01/l101.exe)
 -------------------------
 HY_H2O_M062X_PC2_OPT_FREQ
 -------------------------
 Symbolic Z-matrix:
 Charge =  0 Multiplicity = 1
 O                     1.21267   1.4373   -0.00108 
 N                     0.30218  -0.66944  -0.00423 
 C                     0.13749   0.64703   0.00063 
 C                    -1.12471   1.25305   0.00767 
 C                    -0.78944  -1.4426   -0.00497 
 C                    -2.23314   0.44066   0.00816 
 C                    -2.0735   -0.94479   0.00141 
 H                     2.02448   0.89223  -0.01448 
 H                    -1.1908    2.33017   0.01091 
 H                    -0.60896  -2.51027  -0.01169 
 H                    -3.22303   0.8769    0.01291 
 H                    -2.92124  -1.61245   0.00027 
 O                     3.09355  -0.57372  -0.08195 
 H                     3.62509  -0.89937   0.64534 
 H                     2.22925  -1.01993  -0.02684 
 
 Add virtual bond connecting atoms O13        and H8         Dist= 3.43D+00.
 Add virtual bond connecting atoms H15        and N2         Dist= 3.70D+00.
 Add virtual bond connecting atoms H15        and H8         Dist= 3.63D+00.
 Add atom     13 valence  3 ND=      2 dihedral       8     13     14     15
 -------------------------
 PY_H2O_M062X_PC2_OPT_FREQ
 -------------------------
 Symbolic Z-matrix:
 Charge =  0 Multiplicity = 1
 O                     1.25605   1.38868   0.0173 
 N                     0.25512  -0.65352   0.02378 
 C                     0.21491   0.73349   0.01262 
 C                    -1.11775   1.28483  -0.00532 
 C                    -0.83666  -1.45609   0.01379 
 C                    -2.20938   0.48089  -0.01449 
 C                    -2.08575  -0.93322  -0.00534 
 H                     2.70125   0.27959  -0.03751 
 H                    -1.19153   2.36147  -0.01324 
 H                    -0.6381   -2.51762   0.02115 
 H                    -3.1971    0.92341  -0.03013 
 H                    -2.94891  -1.57804  -0.0136 
 O                     3.06831  -0.62422  -0.08152 
 H                     3.91015  -0.61339   0.37285 
 H                     1.19131  -1.05588   0.0403 
 
 Add virtual bond connecting atoms H8         and O1         Dist= 3.44D+00.
 Add virtual bond connecting atoms O13        and H15        Dist= 3.65D+00.
 -------------
 TST_H2O_M062X
 -------------
 Symbolic Z-matrix:
 Charge =  0 Multiplicity = 1
 O                     1.28494   1.39279  -0.00124 
 N                     0.37445  -0.71395  -0.00439 
 C                     0.20976   0.60251   0.00048 
 C                    -1.05244   1.20853   0.00751 
 C                    -0.71717  -1.48711  -0.00513 
 C                    -2.16087   0.39615   0.00801 
 C                    -2.00123  -0.9893    0.00125 
 H                     2.22013   0.66628  -0.03126 
 H                    -1.11853   2.28566   0.01076 
 H                    -0.53669  -2.55479  -0.01185 
 H                    -3.15076   0.83239   0.01275 
 H                    -2.84897  -1.65696   0.00011 
 O                     2.72664  -0.31551  -0.06986 
 H                     3.25819  -0.64116   0.65743 
 H                     1.75965  -0.81474  -0.00821 
 
 NAtoms=     15 NQM=       15 NQMF=       0 NMMI=      0 NMMIF=      0
                NMic=       0 NMicF=      0.
                    Isotopes and Nuclear Properties:
 (Nuclear quadrupole moments (NQMom) in fm**2, nuclear magnetic moments (NMagM)
  in nuclear magnetons)

  Atom         1           2           3           4           5           6           7           8           9          10
 IAtWgt=          16          14          12          12          12          12          12           1           1           1
 AtmWgt=  15.9949146  14.0030740  12.0000000  12.0000000  12.0000000  12.0000000  12.0000000   1.0078250   1.0078250   1.0078250
 NucSpn=           0           2           0           0           0           0           0           1           1           1
 AtZEff=   0.0000000   0.0000000   0.0000000   0.0000000   0.0000000   0.0000000   0.0000000   0.0000000   0.0000000   0.0000000
 NQMom=    0.0000000   2.0440000   0.0000000   0.0000000   0.0000000   0.0000000   0.0000000   0.0000000   0.0000000   0.0000000
 NMagM=    0.0000000   0.4037610   0.0000000   0.0000000   0.0000000   0.0000000   0.0000000   2.7928460   2.7928460   2.7928460
 AtZNuc=   8.0000000   7.0000000   6.0000000   6.0000000   6.0000000   6.0000000   6.0000000   1.0000000   1.0000000   1.0000000

  Atom        11          12          13          14          15
 IAtWgt=           1           1          16           1           1
 AtmWgt=   1.0078250   1.0078250  15.9949146   1.0078250   1.0078250
 NucSpn=           1           1           0           1           1
 AtZEff=   0.0000000   0.0000000   0.0000000   0.0000000   0.0000000
 NQMom=    0.0000000   0.0000000   0.0000000   0.0000000   0.0000000
 NMagM=    2.7928460   2.7928460   0.0000000   2.7928460   2.7928460
 AtZNuc=   1.0000000   1.0000000   8.0000000   1.0000000   1.0000000
 Leave Link  101 at Sat Aug 28 15:08:00 2021, MaxMem= 17179869184 cpu:        14.8
 (Enter /public3/home/sc51754/softwares/g09e01/l103.exe)

 GradGradGradGradGradGradGradGradGradGradGradGradGradGradGradGradGradGrad
 Berny optimization.
 Initialization pass.
                           ----------------------------
                           !    Initial Parameters    !
                           ! (Angstroms and Degrees)  !
 --------------------------                            --------------------------
 ! Name  Definition        TS        Reactant  Product Derivative Info.         !
 --------------------------------------------------------------------------------
 ! R1    R(1,3)             1.3344    1.3344    1.2301 calculate D2E/DX2 analyti!
 ! R2    R(1,8)             1.1846    0.9779    1.8226 calculate D2E/DX2 analyti!
 ! R3    R(2,3)             1.3267    1.3267    1.3876 calculate D2E/DX2 analyti!
 ! R4    R(2,5)             1.3377    1.3377    1.3551 calculate D2E/DX2 analyti!
 ! R5    R(2,15)            1.3889    1.9588    1.0191 calculate D2E/DX2 analyti!
 ! R6    R(3,4)             1.4002    1.4002    1.4423 calculate D2E/DX2 analyti!
 ! R7    R(4,6)             1.3743    1.3743    1.3558 calculate D2E/DX2 analyti!
 ! R8    R(4,9)             1.0792    1.0792    1.0792 calculate D2E/DX2 analyti!
 ! R9    R(5,7)             1.3772    1.3772    1.3543 calculate D2E/DX2 analyti!
 ! R10   R(5,10)            1.0828    1.0828    1.08   calculate D2E/DX2 analyti!
 ! R11   R(6,7)             1.3946    1.3946    1.4195 calculate D2E/DX2 analyti!
 ! R12   R(6,11)            1.0818    1.0818    1.0824 calculate D2E/DX2 analyti!
 ! R13   R(7,12)            1.0791    1.0791    1.0774 calculate D2E/DX2 analyti!
 ! R14   R(8,13)            1.1054    1.8156    0.9765 calculate D2E/DX2 analyti!
 ! R15   R(8,15)            1.5511    1.9231    2.0173 calculate D2E/DX2 analyti!
 ! R16   R(13,14)           0.9579    0.9579    0.9567 calculate D2E/DX2 analyti!
 ! R17   R(13,15)           1.09      0.9742    1.9298 calculate D2E/DX2 analyti!
 ! A1    A(3,1,8)         105.8378  109.8039  110.2975 calculate D2E/DX2 analyti!
 ! A2    A(3,2,5)         118.1782  118.1782  124.653  calculate D2E/DX2 analyti!
 ! A3    A(3,2,15)        101.2923  107.44    114.9216 calculate D2E/DX2 analyti!
 ! A4    A(5,2,15)        140.5294  134.3786  120.4254 calculate D2E/DX2 analyti!
 ! A5    A(1,3,2)         119.1857  119.1857  120.5185 calculate D2E/DX2 analyti!
 ! A6    A(1,3,4)         118.0363  118.0363  125.342  calculate D2E/DX2 analyti!
 ! A7    A(2,3,4)         122.7781  122.7781  114.1395 calculate D2E/DX2 analyti!
 ! A8    A(3,4,6)         118.1144  118.1144  121.1565 calculate D2E/DX2 analyti!
 ! A9    A(3,4,9)         119.1586  119.1586  116.3986 calculate D2E/DX2 analyti!
 ! A10   A(6,4,9)         122.7269  122.7269  122.4447 calculate D2E/DX2 analyti!
 ! A11   A(2,5,7)         123.5001  123.5001  120.9686 calculate D2E/DX2 analyti!
 ! A12   A(2,5,10)        115.7137  115.7137  115.7206 calculate D2E/DX2 analyti!
 ! A13   A(7,5,10)        120.7862  120.7862  123.3108 calculate D2E/DX2 analyti!
 ! A14   A(4,6,7)         119.6647  119.6647  121.3693 calculate D2E/DX2 analyti!
 ! A15   A(4,6,11)        119.9787  119.9787  119.4989 calculate D2E/DX2 analyti!
 ! A16   A(7,6,11)        120.3565  120.3565  119.1318 calculate D2E/DX2 analyti!
 ! A17   A(5,7,6)         117.7643  117.7643  117.7127 calculate D2E/DX2 analyti!
 ! A18   A(5,7,12)        120.5854  120.5854  120.5273 calculate D2E/DX2 analyti!
 ! A19   A(6,7,12)        121.6502  121.6502  121.7601 calculate D2E/DX2 analyti!
 ! A20   A(1,8,13)        155.1374  159.9423  149.6169 calculate D2E/DX2 analyti!
 ! A21   A(1,8,15)        110.5385  129.992    78.9405 calculate D2E/DX2 analyti!
 ! A22   A(8,13,14)       121.9853  124.9614  107.3904 calculate D2E/DX2 analyti!
 ! A23   A(8,13,15)        89.903    81.1025   80.7108 calculate D2E/DX2 analyti!
 ! A24   A(14,13,15)      107.0761  107.0761  145.9347 calculate D2E/DX2 analyti!
 ! A25   A(2,15,8)        103.1109   73.5764  115.1881 calculate D2E/DX2 analyti!
 ! A26   A(2,15,13)       148.3998  142.3231  143.5265 calculate D2E/DX2 analyti!
 ! D1    D(8,1,3,2)         1.2071    0.5262    2.5816 calculate D2E/DX2 analyti!
 ! D2    D(8,1,3,4)      -178.7981 -179.4789 -177.3633 calculate D2E/DX2 analyti!
 ! D3    D(3,1,8,13)        1.2894    3.8566    1.2992 calculate D2E/DX2 analyti!
 ! D4    D(3,1,8,15)       -1.7897   -0.3825   -2.7862 calculate D2E/DX2 analyti!
 ! D5    D(5,2,3,1)      -179.8747 -179.8747 -179.6927 calculate D2E/DX2 analyti!
 ! D6    D(5,2,3,4)         0.1307    0.1307    0.2581 calculate D2E/DX2 analyti!
 ! D7    D(15,2,3,1)        0.0829   -0.4256    0.285  calculate D2E/DX2 analyti!
 ! D8    D(15,2,3,4)     -179.9116  179.5798 -179.7643 calculate D2E/DX2 analyti!
 ! D9    D(3,2,5,7)        -0.1182   -0.1182   -0.1618 calculate D2E/DX2 analyti!
 ! D10   D(3,2,5,10)      179.8419  179.8419  179.7844 calculate D2E/DX2 analyti!
 ! D11   D(15,2,5,7)      179.9471 -179.3829  179.8617 calculate D2E/DX2 analyti!
 ! D12   D(15,2,5,10)      -0.0929    0.5771   -0.1921 calculate D2E/DX2 analyti!
 ! D13   D(3,2,15,8)       -1.0205    0.1765   -2.8035 calculate D2E/DX2 analyti!
 ! D14   D(3,2,15,13)      -6.1221   -4.4631   -7.2847 calculate D2E/DX2 analyti!
 ! D15   D(5,2,15,8)      178.9208  179.4972  177.1752 calculate D2E/DX2 analyti!
 ! D16   D(5,2,15,13)     173.8192  174.8576  172.694  calculate D2E/DX2 analyti!
 ! D17   D(1,3,4,6)       179.9395  179.9395  179.7399 calculate D2E/DX2 analyti!
 ! D18   D(1,3,4,9)         0.0331    0.0331   -0.1221 calculate D2E/DX2 analyti!
 ! D19   D(2,3,4,6)        -0.0658   -0.0658   -0.2081 calculate D2E/DX2 analyti!
 ! D20   D(2,3,4,9)      -179.9723 -179.9723  179.9299 calculate D2E/DX2 analyti!
 ! D21   D(3,4,6,7)        -0.0159   -0.0159    0.0705 calculate D2E/DX2 analyti!
 ! D22   D(3,4,6,11)     -179.9629 -179.9629 -179.8662 calculate D2E/DX2 analyti!
 ! D23   D(9,4,6,7)       179.8869  179.8869  179.924  calculate D2E/DX2 analyti!
 ! D24   D(9,4,6,11)       -0.0601   -0.0601   -0.0127 calculate D2E/DX2 analyti!
 ! D25   D(2,5,7,6)         0.04      0.04     -0.0013 calculate D2E/DX2 analyti!
 ! D26   D(2,5,7,12)      179.9865  179.9865  179.974  calculate D2E/DX2 analyti!
 ! D27   D(10,5,7,6)     -179.9181 -179.9181 -179.9434 calculate D2E/DX2 analyti!
 ! D28   D(10,5,7,12)       0.0284    0.0284    0.032  calculate D2E/DX2 analyti!
 ! D29   D(4,6,7,5)         0.028     0.028     0.0414 calculate D2E/DX2 analyti!
 ! D30   D(4,6,7,12)     -179.9179 -179.9179 -179.9336 calculate D2E/DX2 analyti!
 ! D31   D(11,6,7,5)      179.9748  179.9748  179.9784 calculate D2E/DX2 analyti!
 ! D32   D(11,6,7,12)       0.0289    0.0289    0.0033 calculate D2E/DX2 analyti!
 ! D33   D(1,8,13,14)    -114.2954 -111.1642 -150.1806 calculate D2E/DX2 analyti!
 ! D34   D(1,8,13,15)      -4.1048   -6.497    -4.2472 calculate D2E/DX2 analyti!
 ! D35   D(1,8,15,2)        1.907     0.135     3.3921 calculate D2E/DX2 analyti!
 ! D36   D(8,13,14,15)    100.9384   90.9945   99.2775 calculate D2E/DX2 analyti!
 ! D37   D(8,13,15,2)       6.98      4.7716    8.5112 calculate D2E/DX2 analyti!
 ! D38   D(14,13,15,2)    130.5951  128.7349  115.8955 calculate D2E/DX2 analyti!
 --------------------------------------------------------------------------------
 Trust Radius=3.00D-01 FncErr=1.00D-07 GrdErr=1.00D-06
 Number of steps in this run=    100 maximum allowed number of steps=    100.
 Search for a saddle point of order  1.
 GradGradGradGradGradGradGradGradGradGradGradGradGradGradGradGradGradGrad

 Leave Link  103 at Sat Aug 28 15:08:00 2021, MaxMem= 17179869184 cpu:         0.8
 (Enter /public3/home/sc51754/softwares/g09e01/l202.exe)
                          Input orientation:                          
 ---------------------------------------------------------------------
 Center     Atomic      Atomic             Coordinates (Angstroms)
 Number     Number       Type             X           Y           Z
 ---------------------------------------------------------------------
      1          8           0        1.284943    1.392789   -0.001239
      2          7           0        0.374447   -0.713951   -0.004388
      3          6           0        0.209763    0.602510    0.000476
      4          6           0       -1.052440    1.208532    0.007510
      5          6           0       -0.717171   -1.487110   -0.005131
      6          6           0       -2.160869    0.396149    0.008006
      7          6           0       -2.001229   -0.989300    0.001250
      8          1           0        2.220129    0.666280   -0.031264
      9          1           0       -1.118529    2.285655    0.010756
     10          1           0       -0.536688   -2.554789   -0.011852
     11          1           0       -3.150760    0.832389    0.012751
     12          1           0       -2.848968   -1.656963    0.000107
     13          8           0        2.726644   -0.315509   -0.069861
     14          1           0        3.258191   -0.641156    0.657429
     15          1           0        1.759653   -0.814736   -0.008207
 ---------------------------------------------------------------------
                    Distance matrix (angstroms):
                    1          2          3          4          5
     1  O    0.000000
     2  N    2.295074   0.000000
     3  C    1.334375   1.326731   0.000000
     4  C    2.344651   2.394178   1.400167   0.000000
     5  C    3.507463   1.337687   2.285990   2.716441   0.000000
     6  C    3.587060   2.767725   2.379609   1.374257   2.372994
     7  C    4.058729   2.391586   2.724398   2.393889   1.377193
     8  H    1.184606   2.304843   2.011628   3.317416   3.642184
     9  H    2.563987   3.350648   2.144165   1.079153   3.794087
    10  H    4.347623   2.053998   3.244361   3.798547   1.082847
    11  H    4.470985   3.849486   3.368399   2.131773   3.361956
    12  H    5.137140   3.358526   3.802769   3.382104   2.138559
    13  O    2.236403   2.386603   2.680000   4.075558   3.638228
    14  H    2.909379   2.959609   3.357262   4.735534   4.118025
    15  H    2.258001   1.388874   2.100196   3.464352   2.566468
                    6          7          8          9         10
     6  C    0.000000
     7  C    1.394632   0.000000
     8  H    4.389494   4.534519   0.000000
     9  H    2.157942   3.391840   3.710900   0.000000
    10  H    3.368441   2.143784   4.239776   4.875341   0.000000
    11  H    1.081763   2.154090   5.373638   2.498389   4.278662
    12  H    2.165366   1.079091   5.576216   4.305667   2.480499
    13  O    4.939667   4.776174   1.105422   4.643050   3.958166
    14  H    5.555535   5.311617   1.805896   5.304724   4.302445
    15  H    4.103292   3.764944   1.551122   4.230452   2.881142
                   11         12         13         14         15
    11  H    0.000000
    12  H    2.507611   0.000000
    13  O    5.989022   5.735141   0.000000
    14  H    6.607693   6.225860   0.957883   0.000000
    15  H    5.179346   4.684955   1.090000   1.648884   0.000000
 Stoichiometry    C5H7NO2
 Framework group  C1[X(C5H7NO2)]
 Deg. of freedom    39
 Full point group                 C1      NOp   1
 Largest Abelian subgroup         C1      NOp   1
 Largest concise Abelian subgroup C1      NOp   1
                         Standard orientation:                         
 ---------------------------------------------------------------------
 Center     Atomic      Atomic             Coordinates (Angstroms)
 Number     Number       Type             X           Y           Z
 ---------------------------------------------------------------------
      1          8           0        1.417092    1.256432   -0.003507
      2          7           0        0.302168   -0.749632   -0.007821
      3          6           0        0.268850    0.576662   -0.000811
      4          6           0       -0.927022    1.304846    0.009504
      5          6           0       -0.860739   -1.410733   -0.007528
      6          6           0       -2.110544    0.606380    0.011014
      7          6           0       -2.089089   -0.788059    0.002026
      8          1           0        2.275571    0.440817   -0.036349
      9          1           0       -0.885968    2.383207    0.014373
     10          1           0       -0.787032   -2.491034   -0.016080
     11          1           0       -3.052287    1.138620    0.018278
     12          1           0       -2.998859   -1.368366    0.001594
     13          8           0        2.682162   -0.586298   -0.077287
     14          1           0        3.180094   -0.964192    0.648521
     15          1           0        1.670544   -0.987273   -0.014458
 ---------------------------------------------------------------------
 Rotational constants (GHZ):      4.3379237      1.6145189      1.1793969
 Leave Link  202 at Sat Aug 28 15:08:01 2021, MaxMem= 17179869184 cpu:         2.7
 (Enter /public3/home/sc51754/softwares/g09e01/l301.exe)
 General basis read from cards:  (5D, 7F)
 Centers:       8      9     10     11     12     14     15
 S 4 1.00
     Exponent=  7.5423000000D+01 Coefficients=  2.4065000000D-03
     Exponent=  1.1350000000D+01 Coefficients=  1.8487000000D-02
     Exponent=  2.5993000000D+00 Coefficients=  8.9742000000D-02
     Exponent=  7.3513000000D-01 Coefficients=  2.8111000000D-01
 S 1 1.00
     Exponent=  2.3167000000D-01 Coefficients=  1.0000000000D+00
 S 1 1.00
     Exponent=  7.4147000000D-02 Coefficients=  1.0000000000D+00
 P 1 1.00
     Exponent=  1.6000000000D+00 Coefficients=  1.0000000000D+00
 P 1 1.00
     Exponent=  4.5000000000D-01 Coefficients=  1.0000000000D+00
 D 1 1.00
     Exponent=  1.2500000000D+00 Coefficients=  1.0000000000D+00
 ****
 Centers:       3      4      5      6      7
 S 7 1.00
     Exponent=  7.8571000000D+03 Coefficients=  5.6825000000D-04
     Exponent=  1.1787000000D+03 Coefficients=  4.3915000000D-03
     Exponent=  2.6832000000D+02 Coefficients=  2.2504000000D-02
     Exponent=  7.5948000000D+01 Coefficients=  8.6653000000D-02
     Exponent=  2.4559000000D+01 Coefficients=  2.4405000000D-01
     Exponent=  8.6212000000D+00 Coefficients=  4.4148000000D-01
     Exponent=  3.1278000000D+00 Coefficients=  3.5332000000D-01
 S 7 1.00
     Exponent=  1.1787000000D+03 Coefficients= -5.9492000000D-07
     Exponent=  2.6832000000D+02 Coefficients= -6.2748000000D-05
     Exponent=  7.5948000000D+01 Coefficients= -7.5773000000D-04
     Exponent=  2.4559000000D+01 Coefficients= -7.3308000000D-03
     Exponent=  8.6212000000D+00 Coefficients= -3.8932000000D-02
     Exponent=  3.1278000000D+00 Coefficients= -8.8908000000D-02
     Exponent=  8.2202000000D-01 Coefficients=  2.1689000000D-01
 S 1 1.00
     Exponent=  3.3017000000D-01 Coefficients=  1.0000000000D+00
 S 1 1.00
     Exponent=  1.1463000000D-01 Coefficients=  1.0000000000D+00
 P 4 1.00
     Exponent=  3.3775000000D+01 Coefficients=  6.0294000000D-03
     Exponent=  7.6766000000D+00 Coefficients=  4.3228000000D-02
     Exponent=  2.2357000000D+00 Coefficients=  1.6301000000D-01
     Exponent=  7.6447000000D-01 Coefficients=  3.6504000000D-01
 P 1 1.00
     Exponent=  2.6232000000D-01 Coefficients=  1.0000000000D+00
 P 1 1.00
     Exponent=  8.4638000000D-02 Coefficients=  1.0000000000D+00
 D 1 1.00
     Exponent=  1.4000000000D+00 Coefficients=  1.0000000000D+00
 D 1 1.00
     Exponent=  4.5000000000D-01 Coefficients=  1.0000000000D+00
 F 1 1.00
     Exponent=  9.5000000000D-01 Coefficients=  1.0000000000D+00
 ****
 Centers:       2
 S 7 1.00
     Exponent=  1.1101000000D+04 Coefficients=  5.4570000000D-04
     Exponent=  1.6653000000D+03 Coefficients=  4.2181000000D-03
     Exponent=  3.7908000000D+02 Coefficients=  2.1645000000D-02
     Exponent=  1.0730000000D+02 Coefficients=  8.3776000000D-02
     Exponent=  3.4747000000D+01 Coefficients=  2.3881000000D-01
     Exponent=  1.2249000000D+01 Coefficients=  4.3994000000D-01
     Exponent=  4.4743000000D+00 Coefficients=  3.6364000000D-01
 S 7 1.00
     Exponent=  1.6653000000D+03 Coefficients= -1.5006000000D-06
     Exponent=  3.7908000000D+02 Coefficients= -5.8753000000D-05
     Exponent=  1.0730000000D+02 Coefficients= -7.7453000000D-04
     Exponent=  3.4747000000D+01 Coefficients= -7.2161000000D-03
     Exponent=  1.2249000000D+01 Coefficients= -3.9338000000D-02
     Exponent=  4.4743000000D+00 Coefficients= -9.0611000000D-02
     Exponent=  1.2404000000D+00 Coefficients=  1.9882000000D-01
 S 1 1.00
     Exponent=  4.8743000000D-01 Coefficients=  1.0000000000D+00
 S 1 1.00
     Exponent=  1.6484000000D-01 Coefficients=  1.0000000000D+00
 P 4 1.00
     Exponent=  4.7934000000D+01 Coefficients=  6.1706000000D-03
     Exponent=  1.0999000000D+01 Coefficients=  4.4260000000D-02
     Exponent=  3.2472000000D+00 Coefficients=  1.6825000000D-01
     Exponent=  1.1114000000D+00 Coefficients=  3.6848000000D-01
 P 1 1.00
     Exponent=  3.7988000000D-01 Coefficients=  1.0000000000D+00
 P 1 1.00
     Exponent=  1.2068000000D-01 Coefficients=  1.0000000000D+00
 D 1 1.00
     Exponent=  1.8000000000D+00 Coefficients=  1.0000000000D+00
 D 1 1.00
     Exponent=  5.5000000000D-01 Coefficients=  1.0000000000D+00
 F 1 1.00
     Exponent=  1.0200000000D+00 Coefficients=  1.0000000000D+00
 ****
 Centers:       1     13
 S 7 1.00
     Exponent=  1.4782000000D+04 Coefficients=  5.3519000000D-04
     Exponent=  2.2173000000D+03 Coefficients=  4.1375000000D-03
     Exponent=  5.0474000000D+02 Coefficients=  2.1245000000D-02
     Exponent=  1.4287000000D+02 Coefficients=  8.2453000000D-02
     Exponent=  4.6300000000D+01 Coefficients=  2.3671000000D-01
     Exponent=  1.6337000000D+01 Coefficients=  4.4039000000D-01
     Exponent=  5.9828000000D+00 Coefficients=  3.6465000000D-01
 S 7 1.00
     Exponent=  2.2173000000D+03 Coefficients= -1.9275000000D-06
     Exponent=  5.0474000000D+02 Coefficients= -5.7964000000D-05
     Exponent=  1.4287000000D+02 Coefficients= -7.9494000000D-04
     Exponent=  4.6300000000D+01 Coefficients= -7.3125000000D-03
     Exponent=  1.6337000000D+01 Coefficients= -4.0574000000D-02
     Exponent=  5.9828000000D+00 Coefficients= -9.1594000000D-02
     Exponent=  1.6718000000D+00 Coefficients=  2.0940000000D-01
 S 1 1.00
     Exponent=  6.4662000000D-01 Coefficients=  1.0000000000D+00
 S 1 1.00
     Exponent=  2.1669000000D-01 Coefficients=  1.0000000000D+00
 P 4 1.00
     Exponent=  6.0424000000D+01 Coefficients=  6.8949000000D-03
     Exponent=  1.3935000000D+01 Coefficients=  4.9005000000D-02
     Exponent=  4.1531000000D+00 Coefficients=  1.8255000000D-01
     Exponent=  1.4158000000D+00 Coefficients=  3.7633000000D-01
 P 1 1.00
     Exponent=  4.7549000000D-01 Coefficients=  1.0000000000D+00
 P 1 1.00
     Exponent=  1.4529000000D-01 Coefficients=  1.0000000000D+00
 D 1 1.00
     Exponent=  2.2000000000D+00 Coefficients=  1.0000000000D+00
 D 1 1.00
     Exponent=  6.5000000000D-01 Coefficients=  1.0000000000D+00
 F 1 1.00
     Exponent=  1.1000000000D+00 Coefficients=  1.0000000000D+00
 ****
 Ernie: Thresh=  0.10000D-02 Tol=  0.10000D-05 Strict=F.
 Ernie:  8 primitive shells out of 263 were deleted.
 There are   385 symmetry adapted cartesian basis functions of A   symmetry.
 There are   338 symmetry adapted basis functions of A   symmetry.
   338 basis functions,   566 primitive gaussians,   385 cartesian basis functions
    30 alpha electrons       30 beta electrons
       nuclear repulsion energy       369.9768653345 Hartrees.
 IExCor= 4336 DFT=T Ex+Corr=M062X ExCW=0 ScaHFX=  0.540000
 ScaDFX=  1.000000  1.000000  1.000000  1.000000 ScalE2=  1.000000  1.000000
 IRadAn=      0 IRanWt=     -1 IRanGd=            0 ICorTp=0 IEmpDi=  4
 NAtoms=   15 NActive=   15 NUniq=   15 SFac= 1.00D+00 NAtFMM=   60 NAOKFM=F Big=F
 Integral buffers will be    131072 words long.
 Raffenetti 2 integral format.
 Two-electron integral symmetry is turned on.
 Leave Link  301 at Sat Aug 28 15:08:01 2021, MaxMem= 17179869184 cpu:         3.5
 (Enter /public3/home/sc51754/softwares/g09e01/l302.exe)
 NPDir=0 NMtPBC=     1 NCelOv=     1 NCel=       1 NClECP=     1 NCelD=      1
         NCelK=      1 NCelE2=     1 NClLst=     1 CellRange=     0.0.
 One-electron integrals computed using PRISM.
 NBasis=   338 RedAO= T EigKep=  1.45D-04  NBF=   338
 NBsUse=   338 1.00D-06 EigRej= -1.00D+00 NBFU=   338
 Precomputing XC quadrature grid using
 IXCGrd= 4 IRadAn=           0 IRanWt=          -1 IRanGd=           0 AccXCQ= 0.00D+00.
 Generated NRdTot=       0 NPtTot=           0 NUsed=           0 NTot=          32
 NSgBfM=   385   385   385   385   385 MxSgAt=    15 MxSgA2=    15.
 Leave Link  302 at Sat Aug 28 15:08:02 2021, MaxMem= 17179869184 cpu:        50.5
 (Enter /public3/home/sc51754/softwares/g09e01/l303.exe)
 DipDrv:  MaxL=1.
 Leave Link  303 at Sat Aug 28 15:08:02 2021, MaxMem= 17179869184 cpu:        13.0
 (Enter /public3/home/sc51754/softwares/g09e01/l401.exe)
 ExpMin= 7.41D-02 ExpMax= 1.48D+04 ExpMxC= 5.05D+02 IAcc=2 IRadAn=         4 AccDes= 0.00D+00
 Harris functional with IExCor= 1009 and IRadAn=       4 diagonalized for initial guess.
 HarFok:  IExCor= 1009 AccDes= 0.00D+00 IRadAn=         4 IDoV= 1 UseB2=F ITyADJ=14
 ICtDFT=  3500011 ScaDFX=  1.000000  1.000000  1.000000  1.000000
 FoFCou: FMM=F IPFlag=           0 FMFlag=      100000 FMFlg1=           0
         NFxFlg=           0 DoJE=T BraDBF=F KetDBF=T FulRan=T
         wScrn=  0.000000 ICntrl=     500 IOpCl=  0 I1Cent=   200000004 NGrid=           0
         NMat0=    1 NMatS0=      1 NMatT0=    0 NMatD0=    1 NMtDS0=    0 NMtDT0=    0
 Petite list used in FoFCou.
 Harris En= -399.777660941587    
 JPrj=0 DoOrth=F DoCkMO=F.
 Leave Link  401 at Sat Aug 28 15:08:03 2021, MaxMem= 17179869184 cpu:        52.5
 (Enter /public3/home/sc51754/softwares/g09e01/l502.exe)
 Closed shell SCF:
 Using DIIS extrapolation, IDIIS=  1040.
 Integral symmetry usage will be decided dynamically.
 Keep R1 ints in memory in canonical form, NReq=1670404686.
 IVT=      490665 IEndB=      490665 NGot= 17179869184 MDV= 15538220534
 LenX= 15538220534 LenY= 15538071868
 Requested convergence on RMS density matrix=1.00D-08 within 128 cycles.
 Requested convergence on MAX density matrix=1.00D-06.
 Requested convergence on             energy=1.00D-06.
 No special actions if energy rises.
 FoFCou: FMM=F IPFlag=           0 FMFlag=           0 FMFlg1=           0
         NFxFlg=           0 DoJE=F BraDBF=F KetDBF=F FulRan=T
         wScrn=  0.000000 ICntrl=     600 IOpCl=  0 I1Cent=           0 NGrid=           0
         NMat0=    1 NMatS0=  57291 NMatT0=    0 NMatD0=    1 NMtDS0=    0 NMtDT0=    0
 Symmetry not used in FoFCou.

 Cycle   1  Pass 1  IDiag  1:
 E= -399.711794179306    
 DIIS: error= 2.36D-02 at cycle   1 NSaved=   1.
 NSaved= 1 IEnMin= 1 EnMin= -399.711794179306     IErMin= 1 ErrMin= 2.36D-02
 ErrMax= 2.36D-02  0.00D+00 EMaxC= 1.00D-01 BMatC= 3.00D-01 BMatP= 3.00D-01
 IDIUse=3 WtCom= 7.64D-01 WtEn= 2.36D-01
 Coeff-Com:  0.100D+01
 Coeff-En:   0.100D+01
 Coeff:      0.100D+01
 Gap=     0.258 Goal=   None    Shift=    0.000
 GapD=    0.258 DampG=1.000 DampE=0.500 DampFc=0.5000 IDamp=-1.
 Damping current iteration by 5.00D-01
 RMSDP=2.22D-03 MaxDP=1.18D-01              OVMax= 1.68D-01

 Cycle   2  Pass 1  IDiag  1:
 E= -399.824539948468     Delta-E=       -0.112745769162 Rises=F Damp=T
 DIIS: error= 6.33D-03 at cycle   2 NSaved=   2.
 NSaved= 2 IEnMin= 2 EnMin= -399.824539948468     IErMin= 2 ErrMin= 6.33D-03
 ErrMax= 6.33D-03  0.00D+00 EMaxC= 1.00D-01 BMatC= 2.14D-02 BMatP= 3.00D-01
 IDIUse=3 WtCom= 9.37D-01 WtEn= 6.33D-02
 Coeff-Com: -0.463D-01 0.105D+01
 Coeff-En:   0.000D+00 0.100D+01
 Coeff:     -0.434D-01 0.104D+01
 Gap=     0.319 Goal=   None    Shift=    0.000
 RMSDP=5.54D-04 MaxDP=2.83D-02 DE=-1.13D-01 OVMax= 9.46D-02

 Cycle   3  Pass 1  IDiag  1:
 E= -399.933563388236     Delta-E=       -0.109023439768 Rises=F Damp=F
 DIIS: error= 3.12D-03 at cycle   3 NSaved=   3.
 NSaved= 3 IEnMin= 3 EnMin= -399.933563388236     IErMin= 3 ErrMin= 3.12D-03
 ErrMax= 3.12D-03  0.00D+00 EMaxC= 1.00D-01 BMatC= 8.53D-03 BMatP= 2.14D-02
 IDIUse=3 WtCom= 9.69D-01 WtEn= 3.12D-02
 Coeff-Com: -0.726D-01 0.397D+00 0.675D+00
 Coeff-En:   0.000D+00 0.000D+00 0.100D+01
 Coeff:     -0.703D-01 0.385D+00 0.685D+00
 Gap=     0.273 Goal=   None    Shift=    0.000
 RMSDP=2.57D-04 MaxDP=1.67D-02 DE=-1.09D-01 OVMax= 3.11D-02

 Cycle   4  Pass 1  IDiag  1:
 E= -399.938407700073     Delta-E=       -0.004844311837 Rises=F Damp=F
 DIIS: error= 2.08D-03 at cycle   4 NSaved=   4.
 NSaved= 4 IEnMin= 4 EnMin= -399.938407700073     IErMin= 4 ErrMin= 2.08D-03
 ErrMax= 2.08D-03  0.00D+00 EMaxC= 1.00D-01 BMatC= 2.35D-03 BMatP= 8.53D-03
 IDIUse=3 WtCom= 9.79D-01 WtEn= 2.08D-02
 Coeff-Com: -0.280D-01 0.730D-01 0.375D+00 0.580D+00
 Coeff-En:   0.000D+00 0.000D+00 0.228D+00 0.772D+00
 Coeff:     -0.274D-01 0.715D-01 0.372D+00 0.584D+00
 Gap=     0.276 Goal=   None    Shift=    0.000
 RMSDP=9.82D-05 MaxDP=7.49D-03 DE=-4.84D-03 OVMax= 1.26D-02

 Cycle   5  Pass 1  IDiag  1:
 E= -399.940345182393     Delta-E=       -0.001937482321 Rises=F Damp=F
 DIIS: error= 3.17D-04 at cycle   5 NSaved=   5.
 NSaved= 5 IEnMin= 5 EnMin= -399.940345182393     IErMin= 5 ErrMin= 3.17D-04
 ErrMax= 3.17D-04  0.00D+00 EMaxC= 1.00D-01 BMatC= 5.06D-05 BMatP= 2.35D-03
 IDIUse=3 WtCom= 9.97D-01 WtEn= 3.17D-03
 Coeff-Com: -0.650D-02 0.869D-02 0.108D+00 0.222D+00 0.667D+00
 Coeff-En:   0.000D+00 0.000D+00 0.000D+00 0.000D+00 0.100D+01
 Coeff:     -0.648D-02 0.866D-02 0.108D+00 0.222D+00 0.668D+00
 Gap=     0.275 Goal=   None    Shift=    0.000
 RMSDP=1.70D-05 MaxDP=7.65D-04 DE=-1.94D-03 OVMax= 2.00D-03

 Cycle   6  Pass 1  IDiag  1:
 E= -399.940382089345     Delta-E=       -0.000036906952 Rises=F Damp=F
 DIIS: error= 1.03D-04 at cycle   6 NSaved=   6.
 NSaved= 6 IEnMin= 6 EnMin= -399.940382089345     IErMin= 6 ErrMin= 1.03D-04
 ErrMax= 1.03D-04  0.00D+00 EMaxC= 1.00D-01 BMatC= 5.60D-06 BMatP= 5.06D-05
 IDIUse=3 WtCom= 9.99D-01 WtEn= 1.03D-03
 Coeff-Com: -0.134D-02-0.194D-03 0.260D-01 0.643D-01 0.312D+00 0.599D+00
 Coeff-En:   0.000D+00 0.000D+00 0.000D+00 0.000D+00 0.000D+00 0.100D+01
 Coeff:     -0.134D-02-0.194D-03 0.260D-01 0.643D-01 0.312D+00 0.599D+00
 Gap=     0.275 Goal=   None    Shift=    0.000
 RMSDP=4.97D-06 MaxDP=2.45D-04 DE=-3.69D-05 OVMax= 4.89D-04

 Cycle   7  Pass 1  IDiag  1:
 E= -399.940386702786     Delta-E=       -0.000004613441 Rises=F Damp=F
 DIIS: error= 1.89D-05 at cycle   7 NSaved=   7.
 NSaved= 7 IEnMin= 7 EnMin= -399.940386702786     IErMin= 7 ErrMin= 1.89D-05
 ErrMax= 1.89D-05  0.00D+00 EMaxC= 1.00D-01 BMatC= 1.11D-07 BMatP= 5.60D-06
 IDIUse=1 WtCom= 1.00D+00 WtEn= 0.00D+00
 Coeff-Com:  0.455D-03-0.917D-03-0.732D-02-0.141D-01-0.179D-01 0.516D-01
 Coeff-Com:  0.988D+00
 Coeff:      0.455D-03-0.917D-03-0.732D-02-0.141D-01-0.179D-01 0.516D-01
 Coeff:      0.988D+00
 Gap=     0.275 Goal=   None    Shift=    0.000
 RMSDP=1.97D-06 MaxDP=5.53D-05 DE=-4.61D-06 OVMax= 4.21D-04

 Cycle   8  Pass 1  IDiag  1:
 E= -399.940386954819     Delta-E=       -0.000000252033 Rises=F Damp=F
 DIIS: error= 1.42D-05 at cycle   8 NSaved=   8.
 NSaved= 8 IEnMin= 8 EnMin= -399.940386954819     IErMin= 8 ErrMin= 1.42D-05
 ErrMax= 1.42D-05  0.00D+00 EMaxC= 1.00D-01 BMatC= 3.46D-08 BMatP= 1.11D-07
 IDIUse=1 WtCom= 1.00D+00 WtEn= 0.00D+00
 Coeff-Com:  0.249D-03-0.337D-03-0.436D-02-0.964D-02-0.240D-01-0.188D-01
 Coeff-Com:  0.397D+00 0.660D+00
 Coeff:      0.249D-03-0.337D-03-0.436D-02-0.964D-02-0.240D-01-0.188D-01
 Coeff:      0.397D+00 0.660D+00
 Gap=     0.275 Goal=   None    Shift=    0.000
 RMSDP=6.38D-07 MaxDP=3.41D-05 DE=-2.52D-07 OVMax= 1.40D-04

 Cycle   9  Pass 1  IDiag  1:
 E= -399.940387001504     Delta-E=       -0.000000046685 Rises=F Damp=F
 DIIS: error= 5.15D-06 at cycle   9 NSaved=   9.
 NSaved= 9 IEnMin= 9 EnMin= -399.940387001504     IErMin= 9 ErrMin= 5.15D-06
 ErrMax= 5.15D-06  0.00D+00 EMaxC= 1.00D-01 BMatC= 5.36D-09 BMatP= 3.46D-08
 IDIUse=1 WtCom= 1.00D+00 WtEn= 0.00D+00
 Coeff-Com:  0.836D-05 0.549D-04-0.353D-03-0.147D-02-0.635D-02-0.200D-01
 Coeff-Com: -0.227D-01 0.254D+00 0.797D+00
 Coeff:      0.836D-05 0.549D-04-0.353D-03-0.147D-02-0.635D-02-0.200D-01
 Coeff:     -0.227D-01 0.254D+00 0.797D+00
 Gap=     0.275 Goal=   None    Shift=    0.000
 RMSDP=3.49D-07 MaxDP=1.10D-05 DE=-4.67D-08 OVMax= 9.75D-05

 Cycle  10  Pass 1  IDiag  1:
 E= -399.940387013324     Delta-E=       -0.000000011820 Rises=F Damp=F
 DIIS: error= 2.19D-06 at cycle  10 NSaved=  10.
 NSaved=10 IEnMin=10 EnMin= -399.940387013324     IErMin=10 ErrMin= 2.19D-06
 ErrMax= 2.19D-06  0.00D+00 EMaxC= 1.00D-01 BMatC= 9.05D-10 BMatP= 5.36D-09
 IDIUse=1 WtCom= 1.00D+00 WtEn= 0.00D+00
 Coeff-Com: -0.303D-04 0.600D-04 0.536D-03 0.849D-03 0.154D-02-0.467D-02
 Coeff-Com: -0.638D-01-0.361D-01 0.264D+00 0.837D+00
 Coeff:     -0.303D-04 0.600D-04 0.536D-03 0.849D-03 0.154D-02-0.467D-02
 Coeff:     -0.638D-01-0.361D-01 0.264D+00 0.837D+00
 Gap=     0.275 Goal=   None    Shift=    0.000
 RMSDP=1.56D-07 MaxDP=5.67D-06 DE=-1.18D-08 OVMax= 3.09D-05

 Cycle  11  Pass 1  IDiag  1:
 E= -399.940387015217     Delta-E=       -0.000000001893 Rises=F Damp=F
 DIIS: error= 7.34D-07 at cycle  11 NSaved=  11.
 NSaved=11 IEnMin=11 EnMin= -399.940387015217     IErMin=11 ErrMin= 7.34D-07
 ErrMax= 7.34D-07  0.00D+00 EMaxC= 1.00D-01 BMatC= 1.64D-10 BMatP= 9.05D-10
 IDIUse=1 WtCom= 1.00D+00 WtEn= 0.00D+00
 Coeff-Com: -0.114D-04 0.119D-04 0.287D-03 0.557D-03 0.171D-02 0.993D-03
 Coeff-Com: -0.215D-01-0.622D-01-0.965D-02 0.369D+00 0.721D+00
 Coeff:     -0.114D-04 0.119D-04 0.287D-03 0.557D-03 0.171D-02 0.993D-03
 Coeff:     -0.215D-01-0.622D-01-0.965D-02 0.369D+00 0.721D+00
 Gap=     0.275 Goal=   None    Shift=    0.000
 RMSDP=5.61D-08 MaxDP=2.09D-06 DE=-1.89D-09 OVMax= 1.37D-05

 Cycle  12  Pass 1  IDiag  1:
 E= -399.940387015499     Delta-E=       -0.000000000282 Rises=F Damp=F
 DIIS: error= 1.67D-07 at cycle  12 NSaved=  12.
 NSaved=12 IEnMin=12 EnMin= -399.940387015499     IErMin=12 ErrMin= 1.67D-07
 ErrMax= 1.67D-07  0.00D+00 EMaxC= 1.00D-01 BMatC= 1.12D-11 BMatP= 1.64D-10
 IDIUse=1 WtCom= 1.00D+00 WtEn= 0.00D+00
 Coeff-Com:  0.123D-05-0.503D-05 0.231D-04 0.507D-04 0.323D-03 0.645D-03
 Coeff-Com:  0.156D-02-0.130D-01-0.254D-01-0.292D-02 0.188D+00 0.851D+00
 Coeff:      0.123D-05-0.503D-05 0.231D-04 0.507D-04 0.323D-03 0.645D-03
 Coeff:      0.156D-02-0.130D-01-0.254D-01-0.292D-02 0.188D+00 0.851D+00
 Gap=     0.275 Goal=   None    Shift=    0.000
 RMSDP=1.58D-08 MaxDP=5.00D-07 DE=-2.82D-10 OVMax= 3.35D-06

 Cycle  13  Pass 1  IDiag  1:
 E= -399.940387015517     Delta-E=       -0.000000000018 Rises=F Damp=F
 DIIS: error= 7.16D-08 at cycle  13 NSaved=  13.
 NSaved=13 IEnMin=13 EnMin= -399.940387015517     IErMin=13 ErrMin= 7.16D-08
 ErrMax= 7.16D-08  0.00D+00 EMaxC= 1.00D-01 BMatC= 2.87D-12 BMatP= 1.12D-11
 IDIUse=1 WtCom= 1.00D+00 WtEn= 0.00D+00
 Coeff-Com:  0.206D-05-0.413D-05-0.203D-04-0.395D-04-0.292D-04 0.204D-03
 Coeff-Com:  0.309D-02-0.927D-03-0.130D-01-0.435D-01 0.229D-01 0.437D+00
 Coeff-Com:  0.595D+00
 Coeff:      0.206D-05-0.413D-05-0.203D-04-0.395D-04-0.292D-04 0.204D-03
 Coeff:      0.309D-02-0.927D-03-0.130D-01-0.435D-01 0.229D-01 0.437D+00
 Coeff:      0.595D+00
 Gap=     0.275 Goal=   None    Shift=    0.000
 RMSDP=5.20D-09 MaxDP=2.06D-07 DE=-1.82D-11 OVMax= 8.89D-07

 SCF Done:  E(RM062X) =  -399.940387016     A.U. after   13 cycles
            NFock= 13  Conv=0.52D-08     -V/T= 2.0034
 KE= 3.986043574377D+02 PE=-1.675706179376D+03 EE= 5.071845695884D+02
 Leave Link  502 at Sat Aug 28 15:08:26 2021, MaxMem= 17179869184 cpu:       459.7
 (Enter /public3/home/sc51754/softwares/g09e01/l801.exe)
 DoSCS=F DFT=T ScalE2(SS,OS)=  1.000000  1.000000
 Range of M.O.s used for correlation:     1   338
 NBasis=   338 NAE=    30 NBE=    30 NFC=     0 NFV=     0
 NROrb=    338 NOA=    30 NOB=    30 NVA=   308 NVB=   308

 **** Warning!!: The largest alpha MO coefficient is  0.14710609D+02

 Leave Link  801 at Sat Aug 28 15:08:26 2021, MaxMem= 17179869184 cpu:         2.2
 (Enter /public3/home/sc51754/softwares/g09e01/l1101.exe)
 Using compressed storage, NAtomX=    15.
 Will process     16 centers per pass.
 Leave Link 1101 at Sat Aug 28 15:08:28 2021, MaxMem= 17179869184 cpu:       116.1
 (Enter /public3/home/sc51754/softwares/g09e01/l1102.exe)
 Symmetrizing basis deriv contribution to polar:
 IMax=3 JMax=2 DiffMx= 0.00D+00
 Leave Link 1102 at Sat Aug 28 15:08:29 2021, MaxMem= 17179869184 cpu:         6.7
 (Enter /public3/home/sc51754/softwares/g09e01/l1110.exe)
 Forming Gx(P) for the SCF density, NAtomX=    15.
 Integral derivatives from FoFJK, PRISM(SPDF).
 Do as many integral derivatives as possible in FoFJK.
 G2DrvN: MDV=   17179868960.
 G2DrvN: will do    16 centers at a time, making    1 passes.
 Calling FoFCou, ICntrl=  3107 FMM=F I1Cent=   0 AccDes= 1.00D-12.
 FoFJK:  IHMeth= 1 ICntrl=    3107 DoSepK=F KAlg= 0 I1Cent=   0 FoldK=F
 IRaf=         0 NMat=   1 IRICut=       1 DoRegI=T DoRafI=F ISym2E= 0.
 FoFCou: FMM=F IPFlag=           0 FMFlag=      100000 FMFlg1=           0
         NFxFlg=           0 DoJE=F BraDBF=F KetDBF=F FulRan=T
         wScrn=  0.000000 ICntrl=    3107 IOpCl=  0 I1Cent=           0 NGrid=           0
         NMat0=    1 NMatS0=      1 NMatT0=    0 NMatD0=    1 NMtDS0=    0 NMtDT0=    0
 Symmetry not used in FoFCou.
 End of G2Drv F.D. properties file   721 does not exist.
 End of G2Drv F.D. properties file   722 does not exist.
 End of G2Drv F.D. properties file   788 does not exist.
 Leave Link 1110 at Sat Aug 28 15:08:44 2021, MaxMem= 17179869184 cpu:       994.6
 (Enter /public3/home/sc51754/softwares/g09e01/l1002.exe)
 Minotr:  Closed shell wavefunction.
          IDoAtm=111111111111111
          Direct CPHF calculation.
          Differentiating once with respect to nuclear coordinates.
          Requested convergence is 1.0D-08 RMS, and 1.0D-07 maximum.
          Secondary convergence is 1.0D-12 RMS, and 1.0D-12 maximum.
          NewPWx=T KeepS1=F KeepF1=F KeepIn=T MapXYZ=F SortEE=F KeepMc=T.
          MDV=   17179868692 using IRadAn=       2.
 Generate precomputed XC quadrature information.
 Keep R1 ints in memory in canonical form, NReq=1669919891.
 FoFCou: FMM=F IPFlag=           0 FMFlag=           0 FMFlg1=           0
         NFxFlg=           0 DoJE=F BraDBF=F KetDBF=F FulRan=T
         wScrn=  0.000000 ICntrl=     600 IOpCl=  0 I1Cent=           0 NGrid=           0
         NMat0=    1 NMatS0=  57291 NMatT0=    0 NMatD0=    1 NMtDS0=    0 NMtDT0=    0
 Symmetry not used in FoFCou.
          Solving linear equations simultaneously, MaxMat=       0.
          There are    48 degrees of freedom in the 1st order CPHF.  IDoFFX=6 NUNeed=     0.
     42 vectors produced by pass  0 Test12= 1.92D-14 2.08D-09 XBig12= 9.11D-02 1.00D-01.
 AX will form    42 AO Fock derivatives at one time.
     42 vectors produced by pass  1 Test12= 1.92D-14 2.08D-09 XBig12= 1.02D-02 2.85D-02.
     42 vectors produced by pass  2 Test12= 1.92D-14 2.08D-09 XBig12= 3.12D-04 3.31D-03.
     42 vectors produced by pass  3 Test12= 1.92D-14 2.08D-09 XBig12= 2.76D-06 4.12D-04.
     42 vectors produced by pass  4 Test12= 1.92D-14 2.08D-09 XBig12= 2.38D-08 4.84D-05.
     42 vectors produced by pass  5 Test12= 1.92D-14 2.08D-09 XBig12= 1.55D-10 2.67D-06.
     36 vectors produced by pass  6 Test12= 1.92D-14 2.08D-09 XBig12= 6.71D-13 1.27D-07.
     10 vectors produced by pass  7 Test12= 1.92D-14 2.08D-09 XBig12= 2.57D-15 5.39D-09.
 InvSVY:  IOpt=1 It=  1 EMax= 1.78D-15
 Solved reduced A of dimension   298 with    42 vectors.
 End of Minotr F.D. properties file   721 does not exist.
 End of Minotr F.D. properties file   722 does not exist.
 End of Minotr F.D. properties file   788 does not exist.
 Leave Link 1002 at Sat Aug 28 15:09:12 2021, MaxMem= 17179869184 cpu:      1731.2
 (Enter /public3/home/sc51754/softwares/g09e01/l601.exe)
 Copying SCF densities to generalized density rwf, IOpCl= 0 IROHF=0.

 **********************************************************************

            Population analysis using the SCF density.

 **********************************************************************

 Orbital symmetries:
       Occupied  (A) (A) (A) (A) (A) (A) (A) (A) (A) (A) (A) (A)
                 (A) (A) (A) (A) (A) (A) (A) (A) (A) (A) (A) (A)
                 (A) (A) (A) (A) (A) (A)
       Virtual   (A) (A) (A) (A) (A) (A) (A) (A) (A) (A) (A) (A)
                 (A) (A) (A) (A) (A) (A) (A) (A) (A) (A) (A) (A)
                 (A) (A) (A) (A) (A) (A) (A) (A) (A) (A) (A) (A)
                 (A) (A) (A) (A) (A) (A) (A) (A) (A) (A) (A) (A)
                 (A) (A) (A) (A) (A) (A) (A) (A) (A) (A) (A) (A)
                 (A) (A) (A) (A) (A) (A) (A) (A) (A) (A) (A) (A)
                 (A) (A) (A) (A) (A) (A) (A) (A) (A) (A) (A) (A)
                 (A) (A) (A) (A) (A) (A) (A) (A) (A) (A) (A) (A)
                 (A) (A) (A) (A) (A) (A) (A) (A) (A) (A) (A) (A)
                 (A) (A) (A) (A) (A) (A) (A) (A) (A) (A) (A) (A)
                 (A) (A) (A) (A) (A) (A) (A) (A) (A) (A) (A) (A)
                 (A) (A) (A) (A) (A) (A) (A) (A) (A) (A) (A) (A)
                 (A) (A) (A) (A) (A) (A) (A) (A) (A) (A) (A) (A)
                 (A) (A) (A) (A) (A) (A) (A) (A) (A) (A) (A) (A)
                 (A) (A) (A) (A) (A) (A) (A) (A) (A) (A) (A) (A)
                 (A) (A) (A) (A) (A) (A) (A) (A) (A) (A) (A) (A)
                 (A) (A) (A) (A) (A) (A) (A) (A) (A) (A) (A) (A)
                 (A) (A) (A) (A) (A) (A) (A) (A) (A) (A) (A) (A)
                 (A) (A) (A) (A) (A) (A) (A) (A) (A) (A) (A) (A)
                 (A) (A) (A) (A) (A) (A) (A) (A) (A) (A) (A) (A)
                 (A) (A) (A) (A) (A) (A) (A) (A) (A) (A) (A) (A)
                 (A) (A) (A) (A) (A) (A) (A) (A) (A) (A) (A) (A)
                 (A) (A) (A) (A) (A) (A) (A) (A) (A) (A) (A) (A)
                 (A) (A) (A) (A) (A) (A) (A) (A) (A) (A) (A) (A)
                 (A) (A) (A) (A) (A) (A) (A) (A) (A) (A) (A) (A)
                 (A) (A) (A) (A) (A) (A) (A) (A)
 The electronic state is 1-A.
 Alpha  occ. eigenvalues --  -19.64078 -19.58599 -14.76585 -10.63215 -10.59212
 Alpha  occ. eigenvalues --  -10.56383 -10.54605 -10.54275  -1.19379  -1.12664
 Alpha  occ. eigenvalues --   -1.05584  -0.91817  -0.85377  -0.74518  -0.71220
 Alpha  occ. eigenvalues --   -0.65972  -0.63828  -0.57806  -0.56189  -0.53957
 Alpha  occ. eigenvalues --   -0.51836  -0.50270  -0.47885  -0.46366  -0.43896
 Alpha  occ. eigenvalues --   -0.40750  -0.37910  -0.36161  -0.34750  -0.28187
 Alpha virt. eigenvalues --   -0.00653   0.03099   0.03482   0.04716   0.06013
 Alpha virt. eigenvalues --    0.07636   0.09511   0.13466   0.13553   0.17131
 Alpha virt. eigenvalues --    0.17645   0.19005   0.19821   0.20469   0.22195
 Alpha virt. eigenvalues --    0.22687   0.23835   0.24387   0.26145   0.28155
 Alpha virt. eigenvalues --    0.29634   0.31462   0.31839   0.32070   0.33364
 Alpha virt. eigenvalues --    0.34503   0.34805   0.35777   0.37421   0.38091
 Alpha virt. eigenvalues --    0.39878   0.41268   0.42479   0.42988   0.44574
 Alpha virt. eigenvalues --    0.45653   0.46312   0.48673   0.49947   0.50582
 Alpha virt. eigenvalues --    0.53535   0.55773   0.56260   0.58006   0.59095
 Alpha virt. eigenvalues --    0.62907   0.65944   0.66649   0.68218   0.68637
 Alpha virt. eigenvalues --    0.69613   0.71642   0.71835   0.76460   0.78565
 Alpha virt. eigenvalues --    0.81643   0.83752   0.85785   0.86334   0.88923
 Alpha virt. eigenvalues --    0.91284   0.94811   0.95960   0.97381   0.98419
 Alpha virt. eigenvalues --    1.00922   1.02046   1.03720   1.07298   1.09889
 Alpha virt. eigenvalues --    1.11596   1.12986   1.15065   1.17274   1.17966
 Alpha virt. eigenvalues --    1.18973   1.20025   1.20409   1.22400   1.25046
 Alpha virt. eigenvalues --    1.26632   1.28395   1.29915   1.31656   1.32363
 Alpha virt. eigenvalues --    1.35392   1.36554   1.38768   1.40669   1.46393
 Alpha virt. eigenvalues --    1.46891   1.49766   1.50666   1.52263   1.55006
 Alpha virt. eigenvalues --    1.55099   1.56763   1.58478   1.60473   1.62495
 Alpha virt. eigenvalues --    1.63247   1.65561   1.67584   1.70532   1.70886
 Alpha virt. eigenvalues --    1.72794   1.75724   1.75766   1.78581   1.82191
 Alpha virt. eigenvalues --    1.84559   1.85156   1.89315   1.91197   1.91607
 Alpha virt. eigenvalues --    1.92387   1.93788   1.99084   2.01783   2.03824
 Alpha virt. eigenvalues --    2.07902   2.08899   2.11503   2.13690   2.14254
 Alpha virt. eigenvalues --    2.17654   2.20176   2.22127   2.25588   2.27473
 Alpha virt. eigenvalues --    2.27978   2.32144   2.32866   2.34863   2.37562
 Alpha virt. eigenvalues --    2.38605   2.55168   2.63699   2.67083   2.81013
 Alpha virt. eigenvalues --    2.84494   2.88267   2.90228   2.98707   2.99046
 Alpha virt. eigenvalues --    3.13359   3.16943   3.18985   3.21312   3.26089
 Alpha virt. eigenvalues --    3.26622   3.28565   3.28868   3.32065   3.35014
 Alpha virt. eigenvalues --    3.35308   3.37709   3.42161   3.44086   3.45025
 Alpha virt. eigenvalues --    3.48409   3.49856   3.53425   3.55007   3.57982
 Alpha virt. eigenvalues --    3.59149   3.61270   3.62441   3.63529   3.64511
 Alpha virt. eigenvalues --    3.66176   3.68566   3.70474   3.76364   3.77282
 Alpha virt. eigenvalues --    3.79287   3.81094   3.84860   3.88410   3.88982
 Alpha virt. eigenvalues --    3.92599   3.94217   3.94727   3.95344   3.98129
 Alpha virt. eigenvalues --    4.02092   4.02838   4.04394   4.04623   4.06423
 Alpha virt. eigenvalues --    4.07894   4.08421   4.12046   4.12682   4.14472
 Alpha virt. eigenvalues --    4.15658   4.16641   4.19097   4.19876   4.21184
 Alpha virt. eigenvalues --    4.22331   4.23782   4.25667   4.26689   4.28225
 Alpha virt. eigenvalues --    4.30367   4.30943   4.31194   4.32513   4.33357
 Alpha virt. eigenvalues --    4.35417   4.38216   4.38950   4.39626   4.41048
 Alpha virt. eigenvalues --    4.42705   4.43821   4.44460   4.45388   4.46362
 Alpha virt. eigenvalues --    4.47473   4.49319   4.53798   4.54436   4.55300
 Alpha virt. eigenvalues --    4.56728   4.59563   4.62981   4.63595   4.68356
 Alpha virt. eigenvalues --    4.70448   4.71851   4.76865   4.79343   4.79530
 Alpha virt. eigenvalues --    4.83619   4.86434   4.87838   4.90265   4.93832
 Alpha virt. eigenvalues --    4.96713   4.99706   5.00230   5.03329   5.05846
 Alpha virt. eigenvalues --    5.09029   5.13876   5.14161   5.16069   5.19167
 Alpha virt. eigenvalues --    5.21739   5.24598   5.25459   5.28771   5.31646
 Alpha virt. eigenvalues --    5.32166   5.32850   5.38207   5.39043   5.41771
 Alpha virt. eigenvalues --    5.43267   5.45996   5.48156   5.48950   5.50752
 Alpha virt. eigenvalues --    5.56000   5.59192   5.63689   5.65300   5.69917
 Alpha virt. eigenvalues --    5.71890   5.74472   5.76693   5.87408   5.94185
 Alpha virt. eigenvalues --    5.95874   6.00554   6.04261   6.07776   6.10285
 Alpha virt. eigenvalues --    6.23688   6.28310   6.31319   6.33767   6.40931
 Alpha virt. eigenvalues --    6.44231   6.47168   6.49687   6.53620   6.56185
 Alpha virt. eigenvalues --    6.63405   6.72117   6.75759   6.80207   6.97171
 Alpha virt. eigenvalues --    7.01990   7.10231   7.24127   7.48761   7.65199
 Alpha virt. eigenvalues --    9.30405  12.12429  12.91605  15.36844  17.25254
 Alpha virt. eigenvalues --   18.00073  18.79840  22.49214
          Condensed to atoms (all electrons):
               1          2          3          4          5          6
     1  O    8.315391  -0.090248   0.356598  -0.068680   0.005525   0.007884
     2  N   -0.090248   6.901569   0.426183  -0.027777   0.447942  -0.028925
     3  C    0.356598   0.426183   4.304644   0.533665  -0.063628  -0.060681
     4  C   -0.068680  -0.027777   0.533665   4.830140  -0.042157   0.538381
     5  C    0.005525   0.447942  -0.063628  -0.042157   4.485241  -0.083619
     6  C    0.007884  -0.028925  -0.060681   0.538381  -0.083619   4.665976
     7  C    0.001061  -0.025865  -0.046041  -0.057290   0.570976   0.481859
     8  H    0.239832   0.002263  -0.013516   0.003025  -0.000169  -0.000748
     9  H    0.003429   0.006272  -0.031814   0.446615  -0.001668  -0.036178
    10  H   -0.000608  -0.047011   0.003410  -0.003405   0.446026   0.008439
    11  H   -0.000570  -0.001949   0.007929  -0.034035   0.008045   0.435444
    12  H    0.000058   0.006225  -0.001552   0.006979  -0.029462  -0.034727
    13  O   -0.159679  -0.135938  -0.006021  -0.003569   0.001166   0.000899
    14  H    0.007612   0.004732   0.000954   0.000471  -0.000348  -0.000078
    15  H    0.001854   0.127690  -0.014115   0.001891   0.001021  -0.001237
               7          8          9         10         11         12
     1  O    0.001061   0.239832   0.003429  -0.000608  -0.000570   0.000058
     2  N   -0.025865   0.002263   0.006272  -0.047011  -0.001949   0.006225
     3  C   -0.046041  -0.013516  -0.031814   0.003410   0.007929  -0.001552
     4  C   -0.057290   0.003025   0.446615  -0.003405  -0.034035   0.006979
     5  C    0.570976  -0.000169  -0.001668   0.446026   0.008045  -0.029462
     6  C    0.481859  -0.000748  -0.036178   0.008439   0.435444  -0.034727
     7  C    4.896255   0.000173   0.006854  -0.057573  -0.044045   0.441990
     8  H    0.000173   0.296472   0.000596   0.000204  -0.000010  -0.000004
     9  H    0.006854   0.000596   0.582272   0.000181  -0.008046  -0.000030
    10  H   -0.057573   0.000204   0.000181   0.629546  -0.000131  -0.006139
    11  H   -0.044045  -0.000010  -0.008046  -0.000131   0.615548  -0.008309
    12  H    0.441990  -0.000004  -0.000030  -0.006139  -0.008309   0.610391
    13  O   -0.001532   0.209225   0.000069   0.000448  -0.000012   0.000017
    14  H    0.000147  -0.010888  -0.000013  -0.000133   0.000002  -0.000004
    15  H    0.001797  -0.013899  -0.000265  -0.002224   0.000071  -0.000035
              13         14         15
     1  O   -0.159679   0.007612   0.001854
     2  N   -0.135938   0.004732   0.127690
     3  C   -0.006021   0.000954  -0.014115
     4  C   -0.003569   0.000471   0.001891
     5  C    0.001166  -0.000348   0.001021
     6  C    0.000899  -0.000078  -0.001237
     7  C   -0.001532   0.000147   0.001797
     8  H    0.209225  -0.010888  -0.013899
     9  H    0.000069  -0.000013  -0.000265
    10  H    0.000448  -0.000133  -0.002224
    11  H   -0.000012   0.000002   0.000071
    12  H    0.000017  -0.000004  -0.000035
    13  O    7.854863   0.358227   0.275292
    14  H    0.358227   0.424865  -0.008083
    15  H    0.275292  -0.008083   0.340902
 Mulliken charges:
               1
     1  O   -0.619461
     2  N   -0.565163
     3  C    0.603986
     4  C   -0.124253
     5  C    0.255110
     6  C    0.107313
     7  C   -0.168765
     8  H    0.287445
     9  H    0.031725
    10  H    0.028971
    11  H    0.030068
    12  H    0.014602
    13  O   -0.393455
    14  H    0.222537
    15  H    0.289341
 Sum of Mulliken charges =  -0.00000
 Mulliken charges with hydrogens summed into heavy atoms:
               1
     1  O   -0.619461
     2  N   -0.565163
     3  C    0.603986
     4  C   -0.092528
     5  C    0.284080
     6  C    0.137380
     7  C   -0.154163
    13  O    0.405868
 APT charges:
               1
     1  O   -0.466246
     2  N   -0.529037
     3  C    0.189584
     4  C   -0.514117
     5  C   -0.257255
     6  C   -0.309673
     7  C   -0.490271
     8  H    0.286972
     9  H    0.427217
    10  H    0.409669
    11  H    0.547996
    12  H    0.564933
    13  O   -0.735262
    14  H    0.731508
    15  H    0.143981
 Sum of APT charges =  -0.00000
 APT charges with hydrogens summed into heavy atoms:
               1
     1  O   -0.466246
     2  N   -0.529037
     3  C    0.189584
     4  C   -0.086900
     5  C    0.152414
     6  C    0.238323
     7  C    0.074662
    13  O    0.427198
 Electronic spatial extent (au):  <R**2>=            964.8912
 Charge=             -0.0000 electrons
 Dipole moment (field-independent basis, Debye):
    X=             -1.3517    Y=             -2.4551    Z=              1.2945  Tot=              3.0871
 Quadrupole moment (field-independent basis, Debye-Ang):
   XX=            -40.3617   YY=            -45.3582   ZZ=            -49.6117
   XY=             -5.5083   XZ=              4.6025   YZ=             -1.4754
 Traceless Quadrupole moment (field-independent basis, Debye-Ang):
   XX=              4.7488   YY=             -0.2477   ZZ=             -4.5012
   XY=             -5.5083   XZ=              4.6025   YZ=             -1.4754
 Octapole moment (field-independent basis, Debye-Ang**2):
  XXX=             20.7637  YYY=             -9.5374  ZZZ=              0.9866  XYY=             -2.1433
  XXY=            -10.0963  XXZ=             15.5072  XZZ=             12.4077  YZZ=             -0.7939
  YYZ=              1.5410  XYZ=             -5.0685
 Hexadecapole moment (field-independent basis, Debye-Ang**3):
 XXXX=           -712.5185 YYYY=           -331.9990 ZZZZ=            -53.8625 XXXY=            -32.9850
 XXXZ=             52.1124 YYYX=            -18.5599 YYYZ=             -1.8517 ZZZX=              4.2901
 ZZZY=             -1.5318 XXYY=           -184.3203 XXZZ=           -151.1356 YYZZ=            -73.7788
 XXYZ=            -16.0788 YYXZ=              5.4843 ZZXY=             -4.6611
 N-N= 3.699768653345D+02 E-N=-1.675706180652D+03  KE= 3.986043574377D+02
  Exact polarizability:   0.000   0.000   0.000   0.000   0.000   0.000
 Approx polarizability: 118.987   5.937 107.957   0.878  -0.632  57.396
 No NMR shielding tensors so no spin-rotation constants.
 Leave Link  601 at Sat Aug 28 15:09:13 2021, MaxMem= 17179869184 cpu:        64.4
 (Enter /public3/home/sc51754/softwares/g09e01/l701.exe)
 Compute integral second derivatives.
 ... and contract with generalized density number  0.
 Leave Link  701 at Sat Aug 28 15:09:16 2021, MaxMem= 17179869184 cpu:       143.1
 (Enter /public3/home/sc51754/softwares/g09e01/l702.exe)
 L702 exits ... SP integral derivatives will be done elsewhere.
 Leave Link  702 at Sat Aug 28 15:09:16 2021, MaxMem= 17179869184 cpu:         1.0
 (Enter /public3/home/sc51754/softwares/g09e01/l703.exe)
 Compute integral second derivatives, UseDBF=F ICtDFT=           0.
 Integral derivatives from FoFJK, PRISM(SPDF).
 Calling FoFJK, ICntrl=    100147 FMM=F ISym2X=0 I1Cent= 0 IOpClX= 0 NMat=1 NMatS=1 NMatT=0.
 FoFJK:  IHMeth= 1 ICntrl=  100147 DoSepK=F KAlg= 0 I1Cent=   0 FoldK=F
 IRaf=         0 NMat=   1 IRICut=       1 DoRegI=T DoRafI=F ISym2E= 0.
 FoFCou: FMM=F IPFlag=           0 FMFlag=      100000 FMFlg1=         800
         NFxFlg=           0 DoJE=F BraDBF=F KetDBF=F FulRan=T
         wScrn=  0.000000 ICntrl=  100147 IOpCl=  0 I1Cent=           0 NGrid=           0
         NMat0=    1 NMatS0=      1 NMatT0=    0 NMatD0=    1 NMtDS0=    0 NMtDT0=    0
 Symmetry not used in FoFCou.
 Leave Link  703 at Sat Aug 28 15:09:40 2021, MaxMem= 17179869184 cpu:      1541.9
 (Enter /public3/home/sc51754/softwares/g09e01/l716.exe)
 Dipole        =-5.31786622D-01-9.65906857D-01 5.09303538D-01
 Polarizability= 0.00000000D+00 0.00000000D+00 0.00000000D+00
                 0.00000000D+00 0.00000000D+00 0.00000000D+00
 ***** Axes restored to original set *****
 -------------------------------------------------------------------
 Center     Atomic                   Forces (Hartrees/Bohr)
 Number     Number              X              Y              Z
 -------------------------------------------------------------------
      1        8          -0.033245297   -0.007313342   -0.001378238
      2        7          -0.014631219   -0.009999213    0.001017646
      3        6           0.034862248    0.050258304    0.000105849
      4        6          -0.016486610   -0.006467086    0.000111433
      5        6          -0.006991114   -0.008512005    0.000043656
      6        6           0.002951366    0.009146071    0.000034882
      7        6           0.005928060   -0.006920744   -0.000098598
      8        1          -0.018303846    0.034387640    0.007341852
      9        1           0.001536671   -0.000842112   -0.000011728
     10        1          -0.000186071    0.000198115   -0.000015200
     11        1          -0.000436710   -0.000186539   -0.000016809
     12        1           0.000863004   -0.000497193   -0.000028766
     13        8           0.036845176   -0.055874615   -0.003914272
     14        1           0.004761117    0.005646437    0.001630485
     15        1           0.002533227   -0.003023719   -0.004822191
 -------------------------------------------------------------------
 Cartesian Forces:  Max     0.055874615 RMS     0.016325909
 FormGI is forming the generalized inverse of G from B-inverse, IUseBI=4.
 Leave Link  716 at Sat Aug 28 15:09:41 2021, MaxMem= 17179869184 cpu:         8.6
 (Enter /public3/home/sc51754/softwares/g09e01/l103.exe)

 GradGradGradGradGradGradGradGradGradGradGradGradGradGradGradGradGradGrad
 Berny optimization.
 Red2BG is reusing G-inverse.
 Internal  Forces:  Max     0.044953657 RMS     0.008079146
 Search for a saddle point.
 Step number   1 out of a maximum of  100
 All quantities printed in internal units (Hartrees-Bohrs-Radians)
 Second derivative matrix not updated -- analytic derivatives used.
 ITU=  0
 LST/QST climbing along tangent vector
     Eigenvalues ---    0.00175   0.00351   0.00531   0.00689   0.00902
     Eigenvalues ---    0.01214   0.01769   0.01899   0.02146   0.02407
     Eigenvalues ---    0.02825   0.03163   0.03485   0.03694   0.04862
     Eigenvalues ---    0.05893   0.07108   0.10261   0.10832   0.11981
     Eigenvalues ---    0.13072   0.14994   0.19695   0.20166   0.21181
     Eigenvalues ---    0.23598   0.27456   0.30122   0.35637   0.35751
     Eigenvalues ---    0.36241   0.36863   0.37232   0.43716   0.45102
     Eigenvalues ---    0.48550   0.50839   0.55654   0.563281000.00000
     Eigenvalues --- 1000.000001000.000001000.000001000.000001000.00000
     Eigenvalues --- 1000.000001000.000001000.000001000.000001000.00000
     Eigenvalues --- 1000.000001000.000001000.000001000.000001000.00000
     Eigenvalues --- 1000.000001000.000001000.000001000.000001000.00000
     Eigenvalues --- 1000.000001000.000001000.000001000.000001000.00000
     Eigenvalues --- 1000.000001000.000001000.000001000.000001000.00000
     Eigenvalues --- 1000.000001000.000001000.000001000.000001000.00000
     Eigenvalues --- 1000.000001000.000001000.000001000.000001000.00000
     Eigenvalues --- 1000.00000
 Eigenvectors required to have negative eigenvalues:
                          D33       D38       D34       D36       A22
   1                    0.55530  -0.52748   0.29184  -0.27137  -0.25034
                          D3        D37       D14       A24       D16
   1                   -0.24166  -0.21328   0.15550  -0.14439   0.13702
 Eigenvalue     1 is   1.75D-03 should be less than     0.000000 Eigenvector:
                          D33       D38       D34       D36       A22
   1                    0.55530  -0.52748   0.29184  -0.27137  -0.25034
                          D3        D37       D14       A24       D16
   1                   -0.24166  -0.21328   0.15550  -0.14439   0.13702
 QST in optimization variable space.
 Eigenvectors 1 and   4 swapped, overlap=  1.0000
                        Tangent   TS vect  // Eig F  Eigenval
   1         R1        -0.05191   0.05191   0.02038   0.00689
   2         R2         0.37843  -0.37843   0.00014   0.00351
   3         R3         0.01838  -0.01838   0.00033   0.00531
   4         R4         0.00742  -0.00742   0.00012   0.00175
   5         R5        -0.50569   0.50569  -0.00101   0.00902
   6         R6         0.01568  -0.01568  -0.00016   0.01214
   7         R7        -0.00785   0.00785   0.00003   0.01769
   8         R8         0.00002  -0.00002   0.00003   0.01899
   9         R9        -0.00820   0.00820  -0.00006   0.02146
  10         R10       -0.00112   0.00112  -0.00009   0.02407
  11         R11        0.00965  -0.00965  -0.00002   0.02825
  12         R12        0.00026  -0.00026   0.00007   0.03163
  13         R13       -0.00064   0.00064   0.00006   0.03485
  14         R14       -0.50558   0.50558  -0.00079   0.03694
  15         R15       -0.05732   0.05732   0.00391   0.04862
  16         R16       -0.00046   0.00046   0.00337   0.05893
  17         R17        0.40020  -0.40020   0.00551   0.07108
  18         A1        -0.02313   0.02313  -0.00068   0.10261
  19         A2         0.01987  -0.01987   0.00143   0.10832
  20         A3         0.01920  -0.01920  -0.00073   0.11981
  21         A4        -0.03907   0.03907   0.00047   0.13072
  22         A5        -0.00432   0.00432  -0.01002   0.14994
  23         A6         0.03128  -0.03128   0.00256   0.19695
  24         A7        -0.02696   0.02696   0.00969   0.20166
  25         A8         0.00938  -0.00938   0.00194   0.21181
  26         A9        -0.00913   0.00913   0.00898   0.23598
  27         A10       -0.00026   0.00026   0.01360   0.27456
  28         A11       -0.00790   0.00790   0.00848   0.30122
  29         A12       -0.00056   0.00056   0.01350   0.35637
  30         A13        0.00846  -0.00846  -0.00715   0.35751
  31         A14        0.00526  -0.00526  -0.01068   0.36241
  32         A15       -0.00130   0.00130   0.00402   0.36863
  33         A16       -0.00396   0.00396  -0.00825   0.37232
  34         A17        0.00034  -0.00034  -0.00569   0.43716
  35         A18       -0.00047   0.00047   0.00287   0.45102
  36         A19        0.00013  -0.00013   0.01030   0.48550
  37         A20       -0.02911   0.02911   0.00308   0.50839
  38         A21       -0.24044   0.24044   0.00141   0.55654
  39         A22       -0.08226   0.08226   0.00490   0.56328
  40         A23        0.01474  -0.01474   0.000001000.00000
  41         A24        0.13263  -0.13263  -0.000001000.00000
  42         A25        0.24807  -0.24807   0.000001000.00000
  43         A26        0.02181  -0.02181  -0.000001000.00000
  44         D1         0.00898  -0.00898   0.000001000.00000
  45         D2         0.00860  -0.00860   0.000001000.00000
  46         D3        -0.01181   0.01181  -0.000001000.00000
  47         D4        -0.01051   0.01051   0.000001000.00000
  48         D5         0.00005  -0.00005  -0.000001000.00000
  49         D6         0.00045  -0.00045   0.000001000.00000
  50         D7         0.00254  -0.00254   0.000001000.00000
  51         D8         0.00293  -0.00293   0.000001000.00000
  52         D9        -0.00010   0.00010  -0.000001000.00000
  53         D10       -0.00025   0.00025   0.000001000.00000
  54         D11       -0.00399   0.00399   0.000001000.00000
  55         D12       -0.00415   0.00415   0.000001000.00000
  56         D13       -0.01440   0.01440   0.000001000.00000
  57         D14       -0.01307   0.01307  -0.000001000.00000
  58         D15       -0.01089   0.01089  -0.000001000.00000
  59         D16       -0.00955   0.00955   0.000001000.00000
  60         D17       -0.00018   0.00018  -0.000001000.00000
  61         D18       -0.00012   0.00012   0.000001000.00000
  62         D19       -0.00057   0.00057  -0.000001000.00000
  63         D20       -0.00052   0.00052   0.000001000.00000
  64         D21        0.00036  -0.00036  -0.000001000.00000
  65         D22        0.00032  -0.00032  -0.000001000.00000
  66         D23        0.00030  -0.00030   0.000001000.00000
  67         D24        0.00026  -0.00026   0.000001000.00000
  68         D25       -0.00014   0.00014   0.000001000.00000
  69         D26       -0.00008   0.00008  -0.000001000.00000
  70         D27        0.00002  -0.00002   0.000001000.00000
  71         D28        0.00008  -0.00008   0.000001000.00000
  72         D29       -0.00002   0.00002   0.000001000.00000
  73         D30       -0.00008   0.00008  -0.000001000.00000
  74         D31        0.00002  -0.00002   0.000001000.00000
  75         D32       -0.00004   0.00004  -0.000001000.00000
  76         D33       -0.13972   0.13972   0.000001000.00000
  77         D34        0.01061  -0.01061   0.000001000.00000
  78         D35        0.01690  -0.01690  -0.000001000.00000
  79         D36        0.07509  -0.07509   0.000001000.00000
  80         D37        0.01833  -0.01833  -0.000001000.00000
  81         D38       -0.03708   0.03708  -0.000001000.00000
 RFO step:  Lambda0=2.411012835D-02 Lambda=-4.93051588D-03.
 Linear search not attempted -- option 19 set.
 Maximum step size (   0.300) exceeded in Quadratic search.
    -- Step size scaled by   0.255
 Iteration  1 RMS(Cart)=  0.02473766 RMS(Int)=  0.00135910
 Iteration  2 RMS(Cart)=  0.00078066 RMS(Int)=  0.00051819
 Iteration  3 RMS(Cart)=  0.00000078 RMS(Int)=  0.00051819
 ITry= 1 IFail=0 DXMaxC= 1.58D-01 DCOld= 1.00D+10 DXMaxT= 3.00D-01 DXLimC= 3.00D+00 Rises=F
 Variable       Old X    -DE/DX   Delta X   Delta X   Delta X     New X
                                 (Linear)    (Quad)   (Total)
    R1        2.52160  -0.02690   0.00000  -0.02718  -0.02771   2.49389
    R2        2.23858   0.01848   0.00000   0.11569   0.11588   2.35446
    R3        2.50716   0.02430   0.00000   0.01147   0.01089   2.51805
    R4        2.52786   0.00491   0.00000   0.00257   0.00257   2.53044
    R5        2.62459   0.01220   0.00000  -0.15855  -0.15837   2.46622
    R6        2.64593   0.00869   0.00000   0.00785   0.00783   2.65376
    R7        2.59697  -0.00273   0.00000  -0.00378  -0.00378   2.59319
    R8        2.03930  -0.00093   0.00000   0.00000   0.00000   2.03930
    R9        2.60252  -0.00633   0.00000  -0.00423  -0.00421   2.59831
   R10        2.04628  -0.00023   0.00000  -0.00051  -0.00051   2.04578
   R11        2.63547   0.00760   0.00000   0.00481   0.00483   2.64030
   R12        2.04424   0.00032   0.00000   0.00018   0.00018   2.04442
   R13        2.03919  -0.00037   0.00000  -0.00034  -0.00034   2.03885
   R14        2.08895   0.04495   0.00000  -0.13034  -0.13174   1.95720
   R15        2.93120   0.01105   0.00000  -0.01078  -0.00788   2.92332
   R16        1.81014   0.00196   0.00000   0.00004   0.00004   1.81017
   R17        2.05980   0.00201   0.00000   0.13196   0.13018   2.18998
    A1        1.84722   0.00244   0.00000  -0.00517  -0.00535   1.84186
    A2        2.06260   0.00504   0.00000   0.01176   0.01177   2.07436
    A3        1.76788   0.00317   0.00000   0.01056   0.01041   1.77829
    A4        2.45270  -0.00821   0.00000  -0.02232  -0.02217   2.43053
    A5        2.08018   0.00184   0.00000  -0.00308  -0.00373   2.07645
    A6        2.06012   0.01016   0.00000   0.01873   0.01914   2.07926
    A7        2.14288  -0.01200   0.00000  -0.01565  -0.01541   2.12747
    A8        2.06149   0.00331   0.00000   0.00511   0.00501   2.06650
    A9        2.07971  -0.00317   0.00000  -0.00489  -0.00484   2.07487
   A10        2.14199  -0.00014   0.00000  -0.00022  -0.00017   2.14182
   A11        2.15548  -0.00186   0.00000  -0.00445  -0.00450   2.15098
   A12        2.01959   0.00109   0.00000   0.00010   0.00013   2.01972
   A13        2.10812   0.00077   0.00000   0.00435   0.00437   2.11249
   A14        2.08854   0.00318   0.00000   0.00337   0.00331   2.09185
   A15        2.09402  -0.00124   0.00000  -0.00103  -0.00100   2.09303
   A16        2.10062  -0.00194   0.00000  -0.00234  -0.00231   2.09831
   A17        2.05538   0.00233   0.00000  -0.00014  -0.00017   2.05520
   A18        2.10461  -0.00211   0.00000  -0.00009  -0.00008   2.10454
   A19        2.12320  -0.00023   0.00000   0.00023   0.00025   2.12345
   A20        2.70766   0.00076   0.00000  -0.00535  -0.00442   2.70324
   A21        1.92926   0.00351   0.00000  -0.07213  -0.07181   1.85745
   A22        2.12905   0.00015   0.00000  -0.04009  -0.03951   2.08953
   A23        1.56910  -0.01522   0.00000  -0.00723  -0.00774   1.56136
   A24        1.86883   0.01298   0.00000   0.05105   0.05198   1.92081
   A25        1.79962  -0.01096   0.00000   0.06967   0.07033   1.86995
   A26        2.59006   0.00704   0.00000   0.00974   0.01031   2.60038
    D1        0.02107  -0.00018   0.00000   0.00240   0.00243   0.02350
    D2       -3.12062  -0.00020   0.00000   0.00236   0.00236  -3.11826
    D3        0.02250  -0.00102   0.00000   0.00229   0.00235   0.02486
    D4       -0.03124   0.00007   0.00000  -0.00239  -0.00231  -0.03354
    D5       -3.13941  -0.00013   0.00000   0.00013   0.00009  -3.13932
[...]
 ! A16   A(7,6,11)             119.6293         -DE/DX =    0.0                 !
 ! A17   A(5,7,6)              117.7296         -DE/DX =    0.0                 !
 ! A18   A(5,7,12)             120.5937         -DE/DX =    0.0                 !
 ! A19   A(6,7,12)             121.6766         -DE/DX =    0.0                 !
 ! A20   A(1,8,13)             157.5287         -DE/DX =    0.0                 !
 ! A21   A(1,8,15)             107.9216         -DE/DX =    0.0                 !
 ! A22   A(8,13,14)            112.7015         -DE/DX =    0.0                 !
 ! A23   A(8,13,15)             82.5869         -DE/DX =    0.0                 !
 ! A24   A(14,13,15)           115.4042         -DE/DX =    0.0                 !
 ! A25   A(2,15,8)             102.2119         -DE/DX =    0.0                 !
 ! A26   A(2,15,13)            149.6712         -DE/DX =    0.0                 !
 ! D1    D(8,1,3,2)              0.414          -DE/DX =    0.0                 !
 ! D2    D(8,1,3,4)           -179.5379         -DE/DX =    0.0                 !
 ! D3    D(3,1,8,13)             4.7359         -DE/DX =    0.0                 !
 ! D4    D(3,1,8,15)            -0.9421         -DE/DX =    0.0                 !
 ! D5    D(5,2,3,1)           -179.723          -DE/DX =    0.0                 !
 ! D6    D(5,2,3,4)              0.2311         -DE/DX =    0.0                 !
 ! D7    D(15,2,3,1)             0.5084         -DE/DX =    0.0                 !
 ! D8    D(15,2,3,4)          -179.5375         -DE/DX =    0.0                 !
 ! D9    D(3,2,5,7)             -0.1595         -DE/DX =    0.0                 !
 ! D10   D(3,2,5,10)           179.7349         -DE/DX =    0.0                 !
 ! D11   D(15,2,5,7)           179.5408         -DE/DX =    0.0                 !
 ! D12   D(15,2,5,10)           -0.5647         -DE/DX =    0.0                 !
 ! D13   D(3,2,15,8)            -0.9303         -DE/DX =    0.0                 !
 ! D14   D(3,2,15,13)           -6.9681         -DE/DX =    0.0                 !
 ! D15   D(5,2,15,8)           179.3349         -DE/DX =    0.0                 !
 ! D16   D(5,2,15,13)          173.2971         -DE/DX =    0.0                 !
 ! D17   D(1,3,4,6)            179.7869         -DE/DX =    0.0                 !
 ! D18   D(1,3,4,9)             -0.0563         -DE/DX =    0.0                 !
 ! D19   D(2,3,4,6)             -0.1648         -DE/DX =    0.0                 !
 ! D20   D(2,3,4,9)            179.992          -DE/DX =    0.0                 !
 ! D21   D(3,4,6,7)              0.0296         -DE/DX =    0.0                 !
 ! D22   D(3,4,6,11)          -179.9139         -DE/DX =    0.0                 !
 ! D23   D(9,4,6,7)            179.8653         -DE/DX =    0.0                 !
 ! D24   D(9,4,6,11)            -0.0782         -DE/DX =    0.0                 !
 ! D25   D(2,5,7,6)              0.0167         -DE/DX =    0.0                 !
 ! D26   D(2,5,7,12)           179.9335         -DE/DX =    0.0                 !
 ! D27   D(10,5,7,6)          -179.8711         -DE/DX =    0.0                 !
 ! D28   D(10,5,7,12)            0.0457         -DE/DX =    0.0                 !
 ! D29   D(4,6,7,5)              0.0451         -DE/DX =    0.0                 !
 ! D30   D(4,6,7,12)          -179.8708         -DE/DX =    0.0                 !
 ! D31   D(11,6,7,5)           179.9885         -DE/DX =    0.0                 !
 ! D32   D(11,6,7,12)            0.0726         -DE/DX =    0.0                 !
 ! D33   D(1,8,13,14)         -121.5748         -DE/DX =    0.0                 !
 ! D34   D(1,8,13,15)           -7.0858         -DE/DX =    0.0                 !
 ! D35   D(1,8,15,2)             1.2795         -DE/DX =    0.0                 !
 ! D36   D(8,13,14,15)          92.5134         -DE/DX =    0.0                 !
 ! D37   D(8,13,15,2)            7.9932         -DE/DX =    0.0                 !
 ! D38   D(14,13,15,2)         119.6504         -DE/DX =    0.0                 !
 --------------------------------------------------------------------------------
 GradGradGradGradGradGradGradGradGradGradGradGradGradGradGradGradGradGrad

 Leave Link  103 at Sat Aug 28 15:21:24 2021, MaxMem= 17179869184 cpu:        44.6
 (Enter /public3/home/sc51754/softwares/g09e01/l9999.exe)
 1\1\GINC-T1602\Freq\RM062X\Gen\C5H7N1O2\SC51754\28-Aug-2021\0\\#P Geom
 =AllCheck Guess=TCheck SCRF=Check GenChk RM062X/ChkBas Freq\\HY_H2O_M0
 62X_PC2_OPT_FREQ\\0,1\O,1.2905214741,1.4138770351,-0.0080551211\N,0.36
 7239575,-0.655405551,-0.0092302489\C,0.2270742596,0.6938838373,-0.0023
 472278\C,-1.0783223888,1.2393207179,0.0097320193\C,-0.6937334736,-1.47
 53582484,-0.0094788137\C,-2.1540828301,0.3952031417,0.010655167\C,-1.9
 754386782,-0.9981448188,0.0004185307\H,2.2115189513,0.6318150139,-0.02
 73763531\H,-1.1806055641,2.3133898395,0.0152748507\H,-0.4727691047,-2.
 5338712746,-0.0197595792\H,-3.1551631055,0.8062137602,0.0184529691\H,-
 2.813603431,-1.676467855,-0.0010672186\O,2.7673420073,-0.4474816406,-0
 .0836055654\H,3.3167895211,-0.6209628297,0.6823818641\H,1.5903470478,-
 0.8752173977,-0.009650223\\Version=EM64L-G09RevE.01\State=1-A\HF=-399.
 9508205\RMSD=3.846e-09\RMSF=1.668e-05\ZeroPoint=0.1135564\Thermal=0.12
 00996\Dipole=-1.0199613,-0.7696203,0.5395874\DipoleDeriv=-2.0145985,-0
 .4084099,-0.0077033,-0.2396662,-0.936308,0.0037484,-0.0009218,0.000576
 ,-0.3676703,-1.3504328,0.1867882,-0.0040296,-0.521093,-0.5135401,0.000
 46,-0.0269665,-0.0012238,-0.1803408,1.7792919,0.8513396,0.0001923,0.75
 66237,0.7049197,-0.0016269,-0.0126833,-0.0066283,0.2250645,-0.6707814,
 -0.5141895,-0.0023242,0.0903216,-0.005902,-0.0004436,0.0098351,0.00231
 92,-0.1730869,0.6249913,-0.3334806,-0.0034517,0.3086513,0.2350797,0.00
 67809,-0.0016731,0.0067206,0.0027871,0.2700868,0.1271304,-0.0008282,0.
 0840756,0.5887051,0.0040645,-0.0020116,0.002843,-0.0724233,-0.2935685,
 0.3732003,0.0017306,0.0502415,-0.4915156,-0.002298,0.0052979,-0.002871
 8,-0.1920163,1.1793711,-0.4137806,-0.0070436,-0.9667182,0.716681,-0.02
 59895,-0.0234117,-0.0151089,0.2215541,0.0652328,-0.0052145,0.0002151,0
 .0097545,-0.0041118,-0.0009764,0.0007922,-0.0003834,0.1517163,0.063641
 ,0.0254507,-0.000196,-0.0116043,-0.0372277,-0.000902,-0.0019543,-0.001
 5117,0.1265125,-0.0355636,0.0530423,0.001026,0.0536625,0.0654664,-0.00
 07161,0.000052,-0.0004648,0.1246479,0.0076468,-0.0542079,-0.0000414,-0
 .0521109,0.0161201,-0.0006645,0.000067,-0.0008706,0.160292,-1.8253281,
 0.2051474,0.027314,0.3436093,-0.8068441,-0.0047286,0.0880348,-0.020692
 6,-0.4191915,0.3082688,-0.0017756,-0.0222194,-0.0187139,0.283667,0.004
 0821,-0.0383386,0.0164408,0.197901,1.8917424,-0.0910403,0.0173594,0.11
 29664,0.1848104,0.0192098,0.0038819,0.0208562,0.1942535\Polar=101.3522
 463,3.7425314,83.2082384,1.0411695,-0.1344786,43.6380448\PG=C01 [X(C5H
 7N1O2)]\NImag=1\\0.45328558,0.16236480,0.35952991,-0.00347899,-0.00080
 476,0.05471745,0.03318487,-0.05803966,0.00014364,0.63047776,-0.0416236
 0,-0.06588597,-0.00021031,0.11922186,0.64372596,0.00105642,-0.00023018
 ,0.01426278,-0.00129852,0.00246561,0.10811513,-0.33436344,-0.15215408,
 0.00205490,-0.18961717,0.01646558,-0.00068203,0.81085040,-0.14556760,-
 0.21539508,0.00122605,0.05114371,-0.25841370,-0.00158730,0.05417135,0.
 66372208,0.00111303,0.00040725,-0.07026574,0.00066689,-0.00092842,-0.0
 7585902,-0.00338002,0.00170156,0.20700067,-0.08052389,0.00184835,0.000
 58515,0.03638365,0.07243663,0.00068219,-0.22910159,0.04363498,0.000943
 73,0.67573782,-0.03242922,0.02121739,0.00028705,0.03834188,-0.02055659
 ,-0.00035787,0.09492518,-0.16127528,-0.00112075,0.05129950,0.78264503,
 0.00074839,0.00049958,0.01506864,-0.00014641,-0.00054420,0.01409611,0.
 00141392,-0.00118101,-0.07910414,-0.00300647,0.00304434,0.12149161,-0.
 01731812,0.01291078,0.00004533,-0.27440939,-0.08334199,0.00086261,0.06
 718144,-0.08702155,-0.00086878,-0.07437428,-0.00563600,0.00034372,0.73
 575165,-0.00233625,0.00141563,-0.00009415,-0.12189644,-0.21731348,-0.0
 0015379,-0.01832405,-0.06278827,-0.00017472,-0.01382424,-0.00252792,0.
 00009000,-0.05103065,0.77415596,0.00004937,-0.00001429,0.00854856,0.00
 022113,-0.00066795,-0.05844685,-0.00044104,0.00014017,-0.00226213,0.00
 024496,0.00010499,-0.00367846,-0.00324352,0.00485266,0.15648455,0.0063
 7357,0.00488078,0.00003732,-0.01237157,-0.01732550,-0.00024999,-0.0546
 5687,-0.00358584,0.00035716,-0.30396956,-0.16351728,0.00046229,0.01973
 239,0.03864882,0.00025209,0.76445621,0.02776377,-0.00493033,-0.0001116
 4,-0.04279648,-0.06391738,-0.00031633,-0.05492554,0.07170894,0.0008252
 7,-0.09749903,-0.23919817,-0.00042322,0.09678300,-0.00787031,-0.000624
 57,0.00358780,0.67589203,0.00014882,-0.00008516,0.00481998,-0.00017317
 ,-0.00027268,-0.00702191,-0.00003712,0.00049924,0.00057778,0.00075924,
 -0.00017418,-0.05730910,0.00055750,-0.00029765,0.00782224,-0.00328886,
 0.00322105,0.14697576,0.00850210,-0.00696310,-0.00001760,-0.08077202,-
 0.05546279,-0.00000075,-0.03562818,0.04993302,0.00042071,0.05134269,-0
 .02242174,-0.00037646,-0.35506759,0.12696804,0.00234218,-0.13302076,-0
 .01234934,0.00022250,0.77920019,-0.02057133,0.00002137,0.00004716,0.00
 820319,0.05909675,0.00044451,0.04368493,-0.04022280,-0.00053070,-0.065
 86310,-0.03767683,0.00008642,0.05542185,-0.17290814,-0.00114155,0.0580
 4011,-0.30856402,-0.00180525,0.04213799,0.68833457,-0.00018909,0.00012
 062,-0.00074237,0.00039551,0.00052465,0.01705529,0.00045538,-0.0005409
 6,-0.00851108,-0.00062535,-0.00022264,0.00727317,0.00179338,-0.0013701
 4,-0.06835885,0.00068474,-0.00154445,-0.06344584,-0.00278905,0.0038130
 8,0.12364282,0.00723107,-0.01187871,-0.00172036,-0.01765345,0.01455793
 ,-0.00101192,-0.06520878,-0.02517763,0.00061401,0.01302810,0.00254986,
 0.00010254,0.00269274,0.00285631,-0.00003163,-0.00235247,-0.00643246,-
 0.00001441,-0.00193406,0.00518297,0.00014550,0.05866638,-0.04508852,-0
 .04499845,0.00114764,0.01905956,-0.01381393,0.00113488,0.02613332,0.05
 221966,0.00003339,-0.01883359,-0.00697791,-0.00002775,-0.00530835,-0.0
 0536654,-0.00005063,0.00230449,0.00996447,0.00002148,0.00429092,-0.007
 05064,-0.00014644,0.06503486,0.04611165,0.00100379,-0.00116411,-0.0343
 1189,-0.00098410,-0.00014332,-0.00150629,-0.00016071,-0.00004253,0.001
 51039,0.00006429,-0.00005216,0.00324938,0.00002011,0.00010168,-0.00069
 855,-0.00005873,-0.00007480,0.00078368,-0.00011048,0.00003218,0.000316
 48,0.00619007,0.00512506,0.06807869,0.00227713,-0.00215082,-0.00004960
 ,-0.00654111,0.00450912,0.00005534,0.00373584,0.02962559,0.00012549,-0
 .06122803,0.02932014,0.00032090,-0.00220303,-0.00121483,0.00000261,0.0
 0772066,-0.02600769,-0.00015634,-0.00345922,-0.00283486,0.00005497,-0.
 00077646,0.00090891,-0.00001476,0.05774788,-0.00033855,0.00125959,0.00
 002586,0.00255670,-0.00047141,-0.00002641,-0.00322494,-0.00866195,-0.0
 0001330,0.03155287,-0.34487118,-0.00157359,0.00067521,0.00101102,0.000
 00347,0.00384320,-0.01238657,-0.00008729,-0.00349413,0.00098270,-0.000
 00760,0.00041493,-0.00036482,0.00000353,-0.03148082,0.36324643,-0.0000
 2756,0.00000472,-0.00254824,0.00008696,-0.00008216,0.00528437,-0.00005
 775,-0.00020663,0.00281078,0.00034663,-0.00144265,-0.03460164,0.000040
 73,0.00002190,-0.00046630,-0.00002950,0.00000940,0.00240949,0.00003146
 ,-0.00003226,0.00918531,-0.00001716,0.00001036,-0.00031759,-0.00032656
 ,0.00168133,0.02465880,-0.00089850,-0.00154479,0.00000159,0.00571090,-
 0.03362999,-0.00028892,-0.00301393,-0.00161871,0.00005022,-0.00065327,
 -0.00070193,0.00000042,-0.07565468,0.06674837,0.00070406,-0.00576191,0
 .00163156,0.00007736,0.00191565,0.02772832,0.00025562,0.00083442,-0.00
 080325,0.00000291,0.00016653,0.00000651,-0.00001033,0.07629664,-0.0004
 8863,-0.00148945,0.00000954,-0.00211244,-0.02160617,-0.00018545,-0.002
 92936,0.00313817,-0.00008360,0.00025557,0.00049278,0.00000804,0.062260
 11,-0.32537783,-0.00256799,0.00200986,0.00056621,-0.00007913,-0.000753
 81,-0.00452358,-0.00010128,0.00044649,-0.00036604,-0.00000606,0.000083
 38,-0.00008063,0.00001124,-0.05931395,0.34902794,0.00001843,-0.0000267
 9,-0.00002008,0.00007007,0.00013515,0.00027785,0.00003689,-0.00001869,
 0.00823177,0.00001199,0.00001893,-0.00035137,0.00060953,-0.00281894,-0
 .04270756,0.00005243,-0.00004471,0.00793712,0.00006802,-0.00019590,0.0
 0758264,-0.00005371,0.00003934,-0.00011143,-0.00001227,0.00000635,-0.0
 0144237,-0.00071586,0.00292337,0.02715011,-0.00181074,0.00069957,0.000
 01562,0.00019742,-0.00075444,-0.00001051,-0.00128267,-0.00370313,0.000
 03024,-0.01780866,0.01174984,0.00018004,0.00178677,0.00061179,0.000020
 58,-0.29718578,0.09740804,0.00190808,0.00076853,-0.00070726,0.00000318
 ,0.00038930,-0.00065171,-0.00001182,0.00102307,-0.00015486,-0.00003217
 ,-0.00005143,-0.00013966,-0.00000230,0.31365440,-0.00088910,0.00078115
 ,0.00002110,-0.00110184,-0.00024444,0.00000860,-0.00372010,-0.00248633
 ,-0.00005842,-0.01898658,0.01188237,0.00012341,0.00050984,-0.00664304,
 -0.00008896,0.09835062,-0.10058339,-0.00090756,0.02941164,-0.00527053,
 -0.00021491,0.00007032,-0.00031343,-0.00000087,0.00052242,0.00071234,0
 .00003215,0.00156237,-0.00034803,-0.00000240,-0.10505199,0.10123026,-0
 .00002530,-0.00004424,-0.00129514,0.00000758,0.00001049,-0.00198805,0.
 00005290,-0.00002131,0.01126635,0.00003822,0.00000977,0.00663577,0.000
 03810,-0.00010628,0.00647094,0.00185103,-0.00091715,-0.04365978,0.0002
 0553,-0.00004938,0.00532453,-0.00002861,0.00002098,-0.00037772,-0.0000
 3556,0.00001872,-0.00536188,0.00000528,0.00000170,-0.00057169,-0.00210
 142,0.00105054,0.02698623,0.00067382,-0.00020505,-0.00000130,-0.005562
 79,0.00330718,0.00008098,-0.00053818,0.00124548,-0.00000061,0.00102689
 ,0.00176384,0.00002611,-0.01602531,-0.02167885,-0.00011759,0.00847533,
 0.00536986,0.00000084,-0.23813274,-0.14373826,-0.00015267,-0.00023638,
 0.00049906,-0.00001767,0.00029796,0.00033523,0.00000021,0.00062146,0.0
 0026343,-0.00001677,0.00047130,-0.00059232,-0.00001497,0.24833218,-0.0
 0041108,0.00052708,0.00000872,0.00393715,0.00054420,-0.00008291,0.0013
 4649,-0.00142148,-0.00001064,0.00243516,-0.00476511,-0.00008535,0.0103
 0862,0.01118080,0.00005333,-0.02529638,-0.01321412,0.00000238,-0.14535
 528,-0.17496311,-0.00044386,0.00019694,-0.00032990,0.00000608,-0.00121
 414,-0.00052248,0.00000207,-0.00055638,0.00041740,0.00003620,0.0003216
 4,0.00107177,0.00003029,0.15442897,0.18091402,-0.00001664,-0.00002549,
 -0.00090313,0.00008420,-0.00008409,0.00851616,0.00001137,0.00000945,-0
 .00017083,0.00003274,-0.00007358,0.00555316,0.00015978,0.00018154,-0.0
 0055440,-0.00020099,-0.00008106,0.00055332,-0.00021312,-0.00051123,-0.
 03252289,0.00001293,-0.00001378,-0.00000027,-0.00001064,-0.00000637,0.
 00049711,-0.00002871,0.00004527,-0.00427154,-0.00001098,0.00003304,-0.
 00308335,0.00018211,0.00049442,0.02572233,-0.02791952,0.04591814,0.001
 51334,-0.09258005,-0.01198341,-0.00168799,-0.00180529,-0.00467834,0.00
 043380,0.00016799,0.00121574,0.00013816,-0.00100865,0.01504123,-0.0000
 3075,-0.00077943,-0.00193989,-0.00006145,-0.00582299,-0.00118369,0.000
 24002,-0.03015478,0.00648337,-0.00241523,-0.00054916,0.00027194,0.0000
 0854,-0.00033637,-0.00101643,-0.00009516,-0.00026902,0.00001896,-0.000
 01578,-0.00129347,0.00042170,0.00003943,0.34313102,0.10011757,-0.04725
 312,0.00238941,-0.03202635,0.02073060,-0.00371322,-0.03377717,-0.03543
 419,0.00024076,0.01242399,0.00596303,-0.00027653,0.00505904,0.00530070
 ,-0.00011040,-0.00179619,-0.00719698,-0.00006763,-0.00374427,0.0049602
 0,0.00029225,-0.04282236,-0.01531984,-0.02402534,-0.00113533,0.0004695
 5,-0.00000742,0.00070155,-0.00000576,-0.00009544,0.00035590,0.00020997
 ,0.00003591,-0.00046907,0.00030136,0.00005814,-0.08461199,0.14603492,-
 0.00259194,0.00416240,0.01656196,-0.00518149,-0.00096591,0.01651582,0.
 00083420,-0.00043185,-0.00072735,-0.00007813,0.00003843,-0.00184235,-0
 .00050675,0.00024404,0.00087680,0.00005470,-0.00002672,0.00011948,-0.0
 0005776,-0.00015135,-0.00117669,-0.00432193,-0.00917693,-0.04189227,0.
 00003495,-0.00001091,0.00013902,0.00000419,-0.00005794,0.00047714,0.00
 001082,0.00001019,0.00022951,-0.00005474,0.00000107,-0.00021698,0.2413
 1782,-0.07355773,0.40156930,0.00130581,0.00189306,0.00152923,-0.006773
 27,-0.00201703,0.00357673,-0.00088889,-0.00116648,-0.00061179,0.000274
 70,0.00015441,-0.00040348,-0.00092223,0.00083293,0.00010517,-0.0000030
 1,-0.00017373,0.00004365,-0.00019085,-0.00024093,-0.00027344,-0.004974
 92,-0.00121622,-0.00568823,0.00001016,0.00002918,0.00000347,-0.0000643
 5,-0.00010819,0.00010311,0.00001812,0.00000120,0.00005466,-0.00008486,
 0.00003623,-0.00003505,-0.18595646,0.05022099,-0.23453982,0.19569533,0
 .00680426,-0.00680575,-0.00394109,-0.00623163,0.00054418,0.00217453,-0
 .00144836,-0.00183290,-0.00007693,0.00042653,0.00023113,0.00027856,0.0
 0006852,0.00105238,0.00001824,-0.00004132,-0.00023266,0.00002213,-0.00
 040852,-0.00003802,-0.00009867,0.00335537,0.01001614,0.01908268,-0.000
 06486,0.00003846,0.00000130,-0.00006893,-0.00012546,0.00000658,0.00001
 364,0.00000164,-0.00004421,-0.00009110,0.00003021,-0.00002264,0.047376
 82,-0.04505897,0.07133412,-0.05598101,0.03966397,0.00331586,-0.0032842
 2,-0.00032157,0.00495401,0.00045776,-0.00042744,-0.00051127,-0.0001360
 2,0.00005868,0.00010684,0.00000408,0.00001613,0.00027908,-0.00041943,0
 .00001956,0.00003286,0.00002345,-0.00001419,0.00021711,0.00010368,0.00
 002102,-0.00103258,0.00354861,0.00055117,0.00001010,0.00000327,0.00001
 034,-0.00001422,0.00005326,0.00001597,0.00001014,-0.00000510,0.0000048
 7,0.00006591,-0.00000675,0.00000820,-0.25298031,0.08111911,-0.35189121
 ,0.25025474,-0.07906481,0.35057029,-0.04999973,0.00242074,-0.00065829,
 -0.01967377,0.01564045,-0.00108365,0.03433732,0.04276516,0.00010593,-0
 .01030255,-0.00661422,0.00019632,-0.01016169,-0.02140218,-0.00007762,0
 .00334320,0.00958014,0.00001335,0.01229924,-0.00525994,0.00000128,0.04
 044929,-0.05281286,0.00218056,0.00177776,-0.00099247,-0.00001697,0.000
 88884,0.00154363,-0.00007440,0.00009939,-0.00010544,-0.00003165,0.0019
 7477,-0.00059962,-0.00000641,0.00517618,0.03150369,0.00507588,0.002554
 72,0.00629058,-0.00470828,-0.01276297,-0.00730651,0.00200602,-0.000000
 58,0.02174078,-0.06241863,0.00042534,0.03377676,-0.00285687,-0.0002107
 5,-0.00130702,-0.00458274,-0.00001869,-0.01165842,0.00667903,0.0000934
 7,-0.00010318,-0.00003772,0.00001025,-0.00178864,-0.00217793,-0.000059
 65,-0.00835482,-0.02341043,0.00115798,0.00113379,-0.00036104,-0.000003
 33,-0.00014074,0.00028045,0.00003694,0.00000263,-0.00000029,0.00000416
 ,-0.00043841,0.00022935,-0.00000362,-0.01133415,-0.03370146,0.00858909
 ,0.00773560,0.00251565,-0.00239691,-0.02195767,0.11783659,-0.00112459,
 0.00048466,-0.00357120,0.00115371,0.00030540,-0.03887395,0.00041037,0.
 00058985,0.00544387,-0.00010602,-0.00006376,0.00350309,-0.00013084,-0.
 00005675,-0.00304953,0.00004343,0.00008546,-0.00054804,0.00005771,-0.0
 0010939,0.00435648,0.00116726,-0.00166622,0.00472620,0.00000135,-0.000
 01705,-0.00025718,-0.00004361,0.00002903,-0.00219656,-0.00000951,-0.00
 000081,-0.00058059,0.00002015,-0.00000505,0.00087310,0.01359557,0.0177
 1812,-0.03874217,-0.01411894,-0.00966978,0.00137818,-0.00091605,-0.007
 62370,0.06753830\\0.00000019,-0.00000536,-0.00000437,0.00000344,-0.000
 01323,-0.00000418,-0.00000181,0.00000564,0.00000333,0.00000316,0.00000
 329,-0.00000302,-0.00000392,-0.00000045,-0.00000188,0.00000247,0.00000
 916,0.00000039,-0.00000059,0.00000635,-0.00000149,-0.00001343,0.000034
 33,0.00001165,0.00000932,0.00000423,-0.00000237,-0.00000968,0.00000127
 ,0.00000417,0.00000361,0.00001171,0.00000002,-0.00000590,0.00001022,0.
 00000150,-0.00000511,-0.00007751,-0.00003064,-0.00001406,-0.00001859,0
 .00000191,0.00003230,0.00002894,0.00002495\\\@


 Once you get people laughing, they're
 listening and you can tell them almost anything.
                                 -- Herb Gardner
 Job cpu time:       0 days  1 hours 33 minutes 49.4 seconds.
 File lengths (MBytes):  RWF=    137 Int=      0 D2E=      0 Chk=      9 Scr=      1
 Normal termination of Gaussian 09 at Sat Aug 28 15:21:24 2021.
