 Entering Gaussian System, Link 0=g09
 AtFile(1): pc-2.gbs
            -H     0
            S    4   1.00
                  0.754230D+02           0.240650D-02
                  0.113500D+02           0.184870D-01
                  0.259930D+01           0.897420D-01
                  0.735130D+00           0.281110D+00
            S    1   1.00
                  0.231670D+00           0.100000D+01
            S    1   1.00
                  0.741470D-01           0.100000D+01
            P    1   1.00
                  0.160000D+01           0.100000D+01
            P    1   1.00
                  0.450000D+00           0.100000D+01
            D    1   1.00
                  0.125000D+01           0.100000D+01
            ****
            -C     0
            S    7   1.00
                  0.785710D+04           0.568250D-03
                  0.117870D+04           0.439150D-02
                  0.268320D+03           0.225040D-01
                  0.759480D+02           0.866530D-01
                  0.245590D+02           0.244050D+00
                  0.862120D+01           0.441480D+00
                  0.312780D+01           0.353320D+00
            S    7   1.00
                  0.117870D+04          -0.594920D-06
                  0.268320D+03          -0.627480D-04
                  0.759480D+02          -0.757730D-03
                  0.245590D+02          -0.733080D-02
                  0.862120D+01          -0.389320D-01
                  0.312780D+01          -0.889080D-01
                  0.822020D+00           0.216890D+00
            S    1   1.00
                  0.330170D+00           0.100000D+01
            S    1   1.00
                  0.114630D+00           0.100000D+01
            P    4   1.00
                  0.337750D+02           0.602940D-02
                  0.767660D+01           0.432280D-01
                  0.223570D+01           0.163010D+00
                  0.764470D+00           0.365040D+00
            P    1   1.00
                  0.262320D+00           0.100000D+01
            P    1   1.00
                  0.846380D-01           0.100000D+01
            D    1   1.00
                  0.140000D+01           0.100000D+01
            D    1   1.00
                  0.450000D+00           0.100000D+01
            F    1   1.00
                  0.950000D+00           0.100000D+01
            ****
            -N     0
            S    7   1.00
                  0.111010D+05           0.545700D-03
                  0.166530D+04           0.421810D-02
                  0.379080D+03           0.216450D-01
                  0.107300D+03           0.837760D-01
                  0.347470D+02           0.238810D+00
                  0.122490D+02           0.439940D+00
                  0.447430D+01           0.363640D+00
            S    7   1.00
                  0.166530D+04          -0.150060D-05
                  0.379080D+03          -0.587530D-04
                  0.107300D+03          -0.774530D-03
                  0.347470D+02          -0.721610D-02
                  0.122490D+02          -0.393380D-01
                  0.447430D+01          -0.906110D-01
                  0.124040D+01           0.198820D+00
            S    1   1.00
                  0.487430D+00           0.100000D+01
            S    1   1.00
                  0.164840D+00           0.100000D+01
            P    4   1.00
                  0.479340D+02           0.617060D-02
                  0.109990D+02           0.442600D-01
                  0.324720D+01           0.168250D+00
                  0.111140D+01           0.368480D+00
            P    1   1.00
                  0.379880D+00           0.100000D+01
            P    1   1.00
                  0.120680D+00           0.100000D+01
            D    1   1.00
                  0.180000D+01           0.100000D+01
            D    1   1.00
                  0.550000D+00           0.100000D+01
            F    1   1.00
                  0.102000D+01           0.100000D+01
            ****
            -O     0
            S    7   1.00
                  0.147820D+05           0.535190D-03
                  0.221730D+04           0.413750D-02
                  0.504740D+03           0.212450D-01
                  0.142870D+03           0.824530D-01
                  0.463000D+02           0.236710D+00
                  0.163370D+02           0.440390D+00
                  0.598280D+01           0.364650D+00
            S    7   1.00
                  0.221730D+04          -0.192750D-05
                  0.504740D+03          -0.579640D-04
                  0.142870D+03          -0.794940D-03
                  0.463000D+02          -0.731250D-02
                  0.163370D+02          -0.405740D-01
                  0.598280D+01          -0.915940D-01
                  0.167180D+01           0.209400D+00
            S    1   1.00
                  0.646620D+00           0.100000D+01
            S    1   1.00
                  0.216690D+00           0.100000D+01
            P    4   1.00
                  0.604240D+02           0.689490D-02
                  0.139350D+02           0.490050D-01
                  0.415310D+01           0.182550D+00
                  0.141580D+01           0.376330D+00
            P    1   1.00
                  0.475490D+00           0.100000D+01
            P    1   1.00
                  0.145290D+00           0.100000D+01
            D    1   1.00
                  0.220000D+01           0.100000D+01
            D    1   1.00
                  0.650000D+00           0.100000D+01
            F    1   1.00
                  0.110000D+01           0.100000D+01
            ****
 Initial command:
 /public3/home/sc51754/softwares/g09e01/l1.exe "./Gau-14384.inp" -scrdir="./"
 Entering Link 1 = /public3/home/sc51754/softwares/g09e01/l1.exe PID=     14385.
  
 Copyright (c) 1988,1990,1992,1993,1995,1998,2003,2009,2015,
            Gaussian, Inc.  All Rights Reserved.
  
 This is part of the Gaussian(R) 09 program.  It is based on
 the Gaussian(R) 03 system (copyright 2003, Gaussian, Inc.),
 the Gaussian(R) 98 system (copyright 1998, Gaussian, Inc.),
 the Gaussian(R) 94 system (copyright 1995, Gaussian, Inc.),
 the Gaussian 92(TM) system (copyright 1992, Gaussian, Inc.),
 the Gaussian 90(TM) system (copyright 1990, Gaussian, Inc.),
 the Gaussian 88(TM) system (copyright 1988, Gaussian, Inc.),
 the Gaussian 86(TM) system (copyright 1986, Carnegie Mellon
 University), and the Gaussian 82(TM) system (copyright 1983,
 Carnegie Mellon University). Gaussian is a federally registered
 trademark of Gaussian, Inc.
  
 This software contains proprietary and confidential information,
 including trade secrets, belonging to Gaussian, Inc.
  
 This software is provided under written license and may be
 used, copied, transmitted, or stored only in accord with that
 written license.
  
 The following legend is applicable only to US Government
 contracts under FAR:
  
                    RESTRICTED RIGHTS LEGEND
  
 Use, reproduction and disclosure by the US Government is
 subject to restrictions as set forth in subparagraphs (a)
 and (c) of the Commercial Computer Software - Restricted
 Rights clause in FAR 52.227-19.
  
 Gaussian, Inc.
 340 Quinnipiac St., Bldg. 40, Wallingford CT 06492
  
  
 ---------------------------------------------------------------
 Warning -- This program may not be used in any manner that
 competes with the business of Gaussian, Inc. or will provide
 assistance to any competitor of Gaussian, Inc.  The licensee
 of this program is prohibited from giving any competitor of
 Gaussian, Inc. access to this program.  By using this program,
 the user acknowledges that Gaussian, Inc. is engaged in the
 business of creating and licensing software in the field of
 computational chemistry and represents and warrants to the
 licensee that it is not a competitor of Gaussian, Inc. and that
 it will not use this program in any manner prohibited above.
 ---------------------------------------------------------------
  

 Cite this work as:
 Gaussian 09, Revision E.01,
 M. J. Frisch, G. W. Trucks, H. B. Schlegel, G. E. Scuseria, 
 M. A. Robb, J. R. Cheeseman, G. Scalmani, V. Barone, B. Mennucci, 
 G. A. Petersson, H. Nakatsuji, M. Caricato, X. Li, H. P. Hratchian, 
 A. F. Izmaylov, J. Bloino, G. Zheng, J. L. Sonnenberg, M. Hada, 
 M. Ehara, K. Toyota, R. Fukuda, J. Hasegawa, M. Ishida, T. Nakajima, 
 Y. Honda, O. Kitao, H. Nakai, T. Vreven, J. A. Montgomery, Jr., 
 J. E. Peralta, F. Ogliaro, M. Bearpark, J. J. Heyd, E. Brothers, 
 K. N. Kudin, V. N. Staroverov, T. Keith, R. Kobayashi, J. Normand, 
 K. Raghavachari, A. Rendell, J. C. Burant, S. S. Iyengar, J. Tomasi, 
 M. Cossi, N. Rega, J. M. Millam, M. Klene, J. E. Knox, J. B. Cross, 
 V. Bakken, C. Adamo, J. Jaramillo, R. Gomperts, R. E. Stratmann, 
 O. Yazyev, A. J. Austin, R. Cammi, C. Pomelli, J. W. Ochterski, 
 R. L. Martin, K. Morokuma, V. G. Zakrzewski, G. A. Voth, 
 P. Salvador, J. J. Dannenberg, S. Dapprich, A. D. Daniels, 
 O. Farkas, J. B. Foresman, J. V. Ortiz, J. Cioslowski, 
 and D. J. Fox, Gaussian, Inc., Wallingford CT, 2013.
 
 ******************************************
 Gaussian 09:  EM64L-G09RevE.01 30-Nov-2015
                27-Aug-2021 
 ******************************************
 %nprocshared=64
 Will use up to   64 processors via shared memory.
 %mem=128GB
 %chk=HY_BHandHLYP_PC2_OPT_FREQ.chk
 -------------------------
 #p opt freq BHandHLYP/gen
 -------------------------
 1/14=-1,18=20,19=15,26=3,38=1/1,3;
 2/9=110,12=2,17=6,18=5,40=1/2;
 3/5=7,11=2,16=1,25=1,30=1,71=1,74=-3/1,2,3;
 4//1;
 5/5=2,38=5/2;
 6/7=2,8=2,9=2,10=2,28=1/1;
 7//1,2,3,16;
 1/14=-1,18=20,19=15,26=3/3(2);
 2/9=110/2;
 99//99;
 2/9=110/2;
 3/5=7,6=1,11=2,16=1,25=1,30=1,71=1,74=-3,82=7/1,2,3;
 4/5=5,16=3,69=1/1;
 5/5=2,38=5/2;
 7//1,2,3,16;
 1/14=-1,18=20,19=15,26=3/3(-5);
 2/9=110/2;
 6/7=2,8=2,9=2,10=2,19=2,28=1/1;
 99/9=1/99;
 Leave Link    1 at Fri Aug 27 00:08:01 2021, MaxMem= 17179869184 cpu:         5.1
 (Enter /public3/home/sc51754/softwares/g09e01/l101.exe)
 -------------------------
 HY_BHandHLYP_PC2_OPT_FREQ
 -------------------------
 Symbolic Z-matrix:
 Charge =  0 Multiplicity = 1
 O                     0.00837   2.23974   0. 
 N                    -1.17143   0.29602   0. 
 C                     0.        0.89831   0. 
 C                     1.21926   0.22535   0. 
 C                    -1.18415  -1.03535   0. 
 C                     1.18363  -1.14867   0. 
 C                    -0.04131  -1.80488   0. 
 H                    -0.91394   2.51588   0. 
 H                     2.14363   0.78426   0. 
 H                    -2.16362  -1.50192   0. 
 H                     2.10659  -1.71377   0. 
 H                    -0.10426  -2.88308   0. 
 
 NAtoms=     12 NQM=       12 NQMF=       0 NMMI=      0 NMMIF=      0
                NMic=       0 NMicF=      0.
                    Isotopes and Nuclear Properties:
 (Nuclear quadrupole moments (NQMom) in fm**2, nuclear magnetic moments (NMagM)
  in nuclear magnetons)

  Atom         1           2           3           4           5           6           7           8           9          10
 IAtWgt=          16          14          12          12          12          12          12           1           1           1
 AtmWgt=  15.9949146  14.0030740  12.0000000  12.0000000  12.0000000  12.0000000  12.0000000   1.0078250   1.0078250   1.0078250
 NucSpn=           0           2           0           0           0           0           0           1           1           1
 AtZEff=   0.0000000   0.0000000   0.0000000   0.0000000   0.0000000   0.0000000   0.0000000   0.0000000   0.0000000   0.0000000
 NQMom=    0.0000000   2.0440000   0.0000000   0.0000000   0.0000000   0.0000000   0.0000000   0.0000000   0.0000000   0.0000000
 NMagM=    0.0000000   0.4037610   0.0000000   0.0000000   0.0000000   0.0000000   0.0000000   2.7928460   2.7928460   2.7928460
 AtZNuc=   8.0000000   7.0000000   6.0000000   6.0000000   6.0000000   6.0000000   6.0000000   1.0000000   1.0000000   1.0000000

  Atom        11          12
 IAtWgt=           1           1
 AtmWgt=   1.0078250   1.0078250
 NucSpn=           1           1
 AtZEff=   0.0000000   0.0000000
 NQMom=    0.0000000   0.0000000
 NMagM=    2.7928460   2.7928460
 AtZNuc=   1.0000000   1.0000000
 Leave Link  101 at Fri Aug 27 00:08:02 2021, MaxMem= 17179869184 cpu:        11.6
 (Enter /public3/home/sc51754/softwares/g09e01/l103.exe)

 GradGradGradGradGradGradGradGradGradGradGradGradGradGradGradGradGradGrad
 Berny optimization.
 Initialization pass.
                           ----------------------------
                           !    Initial Parameters    !
                           ! (Angstroms and Degrees)  !
 --------------------------                            --------------------------
 ! Name  Definition              Value          Derivative Info.                !
 --------------------------------------------------------------------------------
 ! R1    R(1,3)                  1.3415         estimate D2E/DX2                !
 ! R2    R(1,8)                  0.9628         estimate D2E/DX2                !
 ! R3    R(2,3)                  1.3172         estimate D2E/DX2                !
 ! R4    R(2,5)                  1.3314         estimate D2E/DX2                !
 ! R5    R(3,4)                  1.3927         estimate D2E/DX2                !
 ! R6    R(4,6)                  1.3745         estimate D2E/DX2                !
 ! R7    R(4,9)                  1.0802         estimate D2E/DX2                !
 ! R8    R(5,7)                  1.3778         estimate D2E/DX2                !
 ! R9    R(5,10)                 1.0849         estimate D2E/DX2                !
 ! R10   R(6,7)                  1.3896         estimate D2E/DX2                !
 ! R11   R(6,11)                 1.0822         estimate D2E/DX2                !
 ! R12   R(7,12)                 1.08           estimate D2E/DX2                !
 ! A1    A(3,1,8)              106.3104         estimate D2E/DX2                !
 ! A2    A(3,2,5)              117.7571         estimate D2E/DX2                !
 ! A3    A(1,3,2)              117.5674         estimate D2E/DX2                !
 ! A4    A(1,3,4)              118.5383         estimate D2E/DX2                !
 ! A5    A(2,3,4)              123.8942         estimate D2E/DX2                !
 ! A6    A(3,4,6)              117.4104         estimate D2E/DX2                !
 ! A7    A(3,4,9)              119.945          estimate D2E/DX2                !
 ! A8    A(6,4,9)              122.6446         estimate D2E/DX2                !
 ! A9    A(2,5,7)              123.4071         estimate D2E/DX2                !
 ! A10   A(2,5,10)             116.018          estimate D2E/DX2                !
 ! A11   A(7,5,10)             120.5749         estimate D2E/DX2                !
 ! A12   A(4,6,7)              119.6636         estimate D2E/DX2                !
 ! A13   A(4,6,11)             119.9925         estimate D2E/DX2                !
 ! A14   A(7,6,11)             120.3439         estimate D2E/DX2                !
 ! A15   A(5,7,6)              117.8675         estimate D2E/DX2                !
 ! A16   A(5,7,12)             120.6134         estimate D2E/DX2                !
 ! A17   A(6,7,12)             121.519          estimate D2E/DX2                !
 ! D1    D(8,1,3,2)              0.0            estimate D2E/DX2                !
 ! D2    D(8,1,3,4)            180.0            estimate D2E/DX2                !
 ! D3    D(5,2,3,1)            180.0            estimate D2E/DX2                !
 ! D4    D(5,2,3,4)              0.0            estimate D2E/DX2                !
 ! D5    D(3,2,5,7)              0.0            estimate D2E/DX2                !
 ! D6    D(3,2,5,10)           180.0            estimate D2E/DX2                !
 ! D7    D(1,3,4,6)            180.0            estimate D2E/DX2                !
 ! D8    D(1,3,4,9)              0.0            estimate D2E/DX2                !
 ! D9    D(2,3,4,6)              0.0            estimate D2E/DX2                !
 ! D10   D(2,3,4,9)            180.0            estimate D2E/DX2                !
 ! D11   D(3,4,6,7)              0.0            estimate D2E/DX2                !
 ! D12   D(3,4,6,11)           180.0            estimate D2E/DX2                !
 ! D13   D(9,4,6,7)            180.0            estimate D2E/DX2                !
 ! D14   D(9,4,6,11)             0.0            estimate D2E/DX2                !
 ! D15   D(2,5,7,6)              0.0            estimate D2E/DX2                !
 ! D16   D(2,5,7,12)           180.0            estimate D2E/DX2                !
 ! D17   D(10,5,7,6)           180.0            estimate D2E/DX2                !
 ! D18   D(10,5,7,12)            0.0            estimate D2E/DX2                !
 ! D19   D(4,6,7,5)              0.0            estimate D2E/DX2                !
 ! D20   D(4,6,7,12)           180.0            estimate D2E/DX2                !
 ! D21   D(11,6,7,5)           180.0            estimate D2E/DX2                !
 ! D22   D(11,6,7,12)            0.0            estimate D2E/DX2                !
 --------------------------------------------------------------------------------
 Trust Radius=3.00D-01 FncErr=1.00D-07 GrdErr=1.00D-06
 Number of steps in this run=     61 maximum allowed number of steps=    100.
 GradGradGradGradGradGradGradGradGradGradGradGradGradGradGradGradGradGrad

 Leave Link  103 at Fri Aug 27 00:08:02 2021, MaxMem= 17179869184 cpu:         0.2
 (Enter /public3/home/sc51754/softwares/g09e01/l202.exe)
                          Input orientation:                          
 ---------------------------------------------------------------------
 Center     Atomic      Atomic             Coordinates (Angstroms)
 Number     Number       Type             X           Y           Z
 ---------------------------------------------------------------------
      1          8           0        0.008372    2.239736    0.000000
      2          7           0       -1.171427    0.296023    0.000000
      3          6           0        0.000000    0.898309    0.000000
      4          6           0        1.219264    0.225352    0.000000
      5          6           0       -1.184145   -1.035351    0.000000
      6          6           0        1.183632   -1.148671    0.000000
      7          6           0       -0.041314   -1.804878    0.000000
      8          1           0       -0.913944    2.515883    0.000000
      9          1           0        2.143627    0.784264    0.000000
     10          1           0       -2.163617   -1.501920    0.000000
     11          1           0        2.106589   -1.713772    0.000000
     12          1           0       -0.104256   -2.883075    0.000000
 ---------------------------------------------------------------------
                    Distance matrix (angstroms):
                    1          2          3          4          5
     1  O    0.000000
     2  N    2.273752   0.000000
     3  C    1.341453   1.317190   0.000000
     4  C    2.350320   2.391735   1.392651   0.000000
     5  C    3.485440   1.331435   2.267430   2.713991   0.000000
     6  C    3.586438   2.762869   2.364553   1.374485   2.370487
     7  C    4.044919   2.385569   2.703503   2.389747   1.377764
     8  H    0.962769   2.234743   1.857913   3.130033   3.561498
     9  H    2.584127   3.350815   2.146659   1.080199   3.792765
    10  H    4.326376   2.053543   3.231461   3.798335   1.084920
    11  H    4.475795   3.845083   3.355694   2.132498   3.359938
    12  H    5.124049   3.353434   3.782821   3.378465   2.140151
                    6          7          8          9         10
     6  C    0.000000
     7  C    1.389640   0.000000
     8  H    4.222414   4.407999   0.000000
     9  H    2.158200   3.387864   3.513865   0.000000
    10  H    3.365837   2.143818   4.207662   4.876370   0.000000
    11  H    1.082215   2.149834   5.197461   2.498311   4.275458
    12  H    2.160281   1.080033   5.459335   4.301436   2.479628
                   11         12
    11  H    0.000000
    12  H    2.501021   0.000000
 Stoichiometry    C5H5NO
 Framework group  CS[SG(C5H5NO)]
 Deg. of freedom    21
 Full point group                 CS      NOp   2
 Largest Abelian subgroup         CS      NOp   2
 Largest concise Abelian subgroup C1      NOp   1
                         Standard orientation:                         
 ---------------------------------------------------------------------
 Center     Atomic      Atomic             Coordinates (Angstroms)
 Number     Number       Type             X           Y           Z
 ---------------------------------------------------------------------
      1          8           0        0.008372    2.239736    0.000000
      2          7           0       -1.171427    0.296023    0.000000
      3          6           0       -0.000000    0.898309    0.000000
      4          6           0        1.219264    0.225352    0.000000
      5          6           0       -1.184145   -1.035351    0.000000
      6          6           0        1.183632   -1.148671    0.000000
      7          6           0       -0.041314   -1.804878    0.000000
      8          1           0       -0.913944    2.515883    0.000000
      9          1           0        2.143627    0.784264    0.000000
     10          1           0       -2.163617   -1.501920    0.000000
     11          1           0        2.106589   -1.713772    0.000000
     12          1           0       -0.104257   -2.883075    0.000000
 ---------------------------------------------------------------------
 Rotational constants (GHZ):      5.9244098      2.8053779      1.9038502
 Leave Link  202 at Fri Aug 27 00:08:02 2021, MaxMem= 17179869184 cpu:         5.6
 (Enter /public3/home/sc51754/softwares/g09e01/l301.exe)
 General basis read from cards:  (5D, 7F)
 Centers:       8      9     10     11     12
 S 4 1.00
     Exponent=  7.5423000000D+01 Coefficients=  2.4065000000D-03
     Exponent=  1.1350000000D+01 Coefficients=  1.8487000000D-02
     Exponent=  2.5993000000D+00 Coefficients=  8.9742000000D-02
     Exponent=  7.3513000000D-01 Coefficients=  2.8111000000D-01
 S 1 1.00
     Exponent=  2.3167000000D-01 Coefficients=  1.0000000000D+00
 S 1 1.00
     Exponent=  7.4147000000D-02 Coefficients=  1.0000000000D+00
 P 1 1.00
     Exponent=  1.6000000000D+00 Coefficients=  1.0000000000D+00
 P 1 1.00
     Exponent=  4.5000000000D-01 Coefficients=  1.0000000000D+00
 D 1 1.00
     Exponent=  1.2500000000D+00 Coefficients=  1.0000000000D+00
 ****
 Centers:       3      4      5      6      7
 S 7 1.00
     Exponent=  7.8571000000D+03 Coefficients=  5.6825000000D-04
     Exponent=  1.1787000000D+03 Coefficients=  4.3915000000D-03
     Exponent=  2.6832000000D+02 Coefficients=  2.2504000000D-02
     Exponent=  7.5948000000D+01 Coefficients=  8.6653000000D-02
     Exponent=  2.4559000000D+01 Coefficients=  2.4405000000D-01
     Exponent=  8.6212000000D+00 Coefficients=  4.4148000000D-01
     Exponent=  3.1278000000D+00 Coefficients=  3.5332000000D-01
 S 7 1.00
     Exponent=  1.1787000000D+03 Coefficients= -5.9492000000D-07
     Exponent=  2.6832000000D+02 Coefficients= -6.2748000000D-05
     Exponent=  7.5948000000D+01 Coefficients= -7.5773000000D-04
     Exponent=  2.4559000000D+01 Coefficients= -7.3308000000D-03
     Exponent=  8.6212000000D+00 Coefficients= -3.8932000000D-02
     Exponent=  3.1278000000D+00 Coefficients= -8.8908000000D-02
     Exponent=  8.2202000000D-01 Coefficients=  2.1689000000D-01
 S 1 1.00
     Exponent=  3.3017000000D-01 Coefficients=  1.0000000000D+00
 S 1 1.00
     Exponent=  1.1463000000D-01 Coefficients=  1.0000000000D+00
 P 4 1.00
     Exponent=  3.3775000000D+01 Coefficients=  6.0294000000D-03
     Exponent=  7.6766000000D+00 Coefficients=  4.3228000000D-02
     Exponent=  2.2357000000D+00 Coefficients=  1.6301000000D-01
     Exponent=  7.6447000000D-01 Coefficients=  3.6504000000D-01
 P 1 1.00
     Exponent=  2.6232000000D-01 Coefficients=  1.0000000000D+00
 P 1 1.00
     Exponent=  8.4638000000D-02 Coefficients=  1.0000000000D+00
 D 1 1.00
     Exponent=  1.4000000000D+00 Coefficients=  1.0000000000D+00
 D 1 1.00
     Exponent=  4.5000000000D-01 Coefficients=  1.0000000000D+00
 F 1 1.00
     Exponent=  9.5000000000D-01 Coefficients=  1.0000000000D+00
 ****
 Centers:       2
 S 7 1.00
     Exponent=  1.1101000000D+04 Coefficients=  5.4570000000D-04
     Exponent=  1.6653000000D+03 Coefficients=  4.2181000000D-03
     Exponent=  3.7908000000D+02 Coefficients=  2.1645000000D-02
     Exponent=  1.0730000000D+02 Coefficients=  8.3776000000D-02
     Exponent=  3.4747000000D+01 Coefficients=  2.3881000000D-01
     Exponent=  1.2249000000D+01 Coefficients=  4.3994000000D-01
     Exponent=  4.4743000000D+00 Coefficients=  3.6364000000D-01
 S 7 1.00
     Exponent=  1.6653000000D+03 Coefficients= -1.5006000000D-06
     Exponent=  3.7908000000D+02 Coefficients= -5.8753000000D-05
     Exponent=  1.0730000000D+02 Coefficients= -7.7453000000D-04
     Exponent=  3.4747000000D+01 Coefficients= -7.2161000000D-03
     Exponent=  1.2249000000D+01 Coefficients= -3.9338000000D-02
     Exponent=  4.4743000000D+00 Coefficients= -9.0611000000D-02
     Exponent=  1.2404000000D+00 Coefficients=  1.9882000000D-01
 S 1 1.00
     Exponent=  4.8743000000D-01 Coefficients=  1.0000000000D+00
 S 1 1.00
     Exponent=  1.6484000000D-01 Coefficients=  1.0000000000D+00
 P 4 1.00
     Exponent=  4.7934000000D+01 Coefficients=  6.1706000000D-03
     Exponent=  1.0999000000D+01 Coefficients=  4.4260000000D-02
     Exponent=  3.2472000000D+00 Coefficients=  1.6825000000D-01
     Exponent=  1.1114000000D+00 Coefficients=  3.6848000000D-01
 P 1 1.00
     Exponent=  3.7988000000D-01 Coefficients=  1.0000000000D+00
 P 1 1.00
     Exponent=  1.2068000000D-01 Coefficients=  1.0000000000D+00
 D 1 1.00
     Exponent=  1.8000000000D+00 Coefficients=  1.0000000000D+00
 D 1 1.00
     Exponent=  5.5000000000D-01 Coefficients=  1.0000000000D+00
 F 1 1.00
     Exponent=  1.0200000000D+00 Coefficients=  1.0000000000D+00
 ****
 Centers:       1
 S 7 1.00
     Exponent=  1.4782000000D+04 Coefficients=  5.3519000000D-04
     Exponent=  2.2173000000D+03 Coefficients=  4.1375000000D-03
     Exponent=  5.0474000000D+02 Coefficients=  2.1245000000D-02
     Exponent=  1.4287000000D+02 Coefficients=  8.2453000000D-02
     Exponent=  4.6300000000D+01 Coefficients=  2.3671000000D-01
     Exponent=  1.6337000000D+01 Coefficients=  4.4039000000D-01
     Exponent=  5.9828000000D+00 Coefficients=  3.6465000000D-01
 S 7 1.00
     Exponent=  2.2173000000D+03 Coefficients= -1.9275000000D-06
     Exponent=  5.0474000000D+02 Coefficients= -5.7964000000D-05
     Exponent=  1.4287000000D+02 Coefficients= -7.9494000000D-04
     Exponent=  4.6300000000D+01 Coefficients= -7.3125000000D-03
     Exponent=  1.6337000000D+01 Coefficients= -4.0574000000D-02
     Exponent=  5.9828000000D+00 Coefficients= -9.1594000000D-02
     Exponent=  1.6718000000D+00 Coefficients=  2.0940000000D-01
 S 1 1.00
     Exponent=  6.4662000000D-01 Coefficients=  1.0000000000D+00
 S 1 1.00
     Exponent=  2.1669000000D-01 Coefficients=  1.0000000000D+00
 P 4 1.00
     Exponent=  6.0424000000D+01 Coefficients=  6.8949000000D-03
     Exponent=  1.3935000000D+01 Coefficients=  4.9005000000D-02
     Exponent=  4.1531000000D+00 Coefficients=  1.8255000000D-01
     Exponent=  1.4158000000D+00 Coefficients=  3.7633000000D-01
 P 1 1.00
     Exponent=  4.7549000000D-01 Coefficients=  1.0000000000D+00
 P 1 1.00
     Exponent=  1.4529000000D-01 Coefficients=  1.0000000000D+00
 D 1 1.00
     Exponent=  2.2000000000D+00 Coefficients=  1.0000000000D+00
 D 1 1.00
     Exponent=  6.5000000000D-01 Coefficients=  1.0000000000D+00
 F 1 1.00
     Exponent=  1.1000000000D+00 Coefficients=  1.0000000000D+00
 ****
 Ernie: Thresh=  0.10000D-02 Tol=  0.10000D-05 Strict=F.
 Ernie:  7 primitive shells out of 220 were deleted.
 There are   223 symmetry adapted cartesian basis functions of A'  symmetry.
 There are    97 symmetry adapted cartesian basis functions of A"  symmetry.
 There are   190 symmetry adapted basis functions of A'  symmetry.
 There are    90 symmetry adapted basis functions of A"  symmetry.
   280 basis functions,   475 primitive gaussians,   320 cartesian basis functions
    25 alpha electrons       25 beta electrons
       nuclear repulsion energy       277.5236709615 Hartrees.
 IExCor=  402 DFT=T Ex+Corr=BHandHLYP ExCW=0 ScaHFX=  0.500000
 ScaDFX=  0.500000  0.500000  1.000000  1.000000 ScalE2=  1.000000  1.000000
 IRadAn=      0 IRanWt=     -1 IRanGd=            0 ICorTp=0 IEmpDi=  4
 NAtoms=   12 NActive=   12 NUniq=   12 SFac= 1.00D+00 NAtFMM=   60 NAOKFM=F Big=F
 Integral buffers will be    131072 words long.
 Raffenetti 2 integral format.
 Two-electron integral symmetry is turned on.
 Leave Link  301 at Fri Aug 27 00:08:02 2021, MaxMem= 17179869184 cpu:         1.6
 (Enter /public3/home/sc51754/softwares/g09e01/l302.exe)
 NPDir=0 NMtPBC=     1 NCelOv=     1 NCel=       1 NClECP=     1 NCelD=      1
         NCelK=      1 NCelE2=     1 NClLst=     1 CellRange=     0.0.
 One-electron integrals computed using PRISM.
 NBasis=   280 RedAO= T EigKep=  2.16D-04  NBF=   190    90
 NBsUse=   280 1.00D-06 EigRej= -1.00D+00 NBFU=   190    90
 Precomputing XC quadrature grid using
 IXCGrd= 4 IRadAn=           0 IRanWt=          -1 IRanGd=           0 AccXCQ= 0.00D+00.
 Generated NRdTot=       0 NPtTot=           0 NUsed=           0 NTot=          32
 NSgBfM=   320   320   320   320   320 MxSgAt=    12 MxSgA2=    12.
 Leave Link  302 at Fri Aug 27 00:08:03 2021, MaxMem= 17179869184 cpu:        40.0
 (Enter /public3/home/sc51754/softwares/g09e01/l303.exe)
 DipDrv:  MaxL=1.
 Leave Link  303 at Fri Aug 27 00:08:03 2021, MaxMem= 17179869184 cpu:        10.1
 (Enter /public3/home/sc51754/softwares/g09e01/l401.exe)
 ExpMin= 7.41D-02 ExpMax= 1.48D+04 ExpMxC= 5.05D+02 IAcc=2 IRadAn=         4 AccDes= 0.00D+00
 Harris functional with IExCor=  402 and IRadAn=       4 diagonalized for initial guess.
 HarFok:  IExCor=  402 AccDes= 0.00D+00 IRadAn=         4 IDoV= 1 UseB2=F ITyADJ=14
 ICtDFT=  3500011 ScaDFX=  1.000000  1.000000  1.000000  1.000000
 FoFCou: FMM=F IPFlag=           0 FMFlag=      100000 FMFlg1=           0
         NFxFlg=           0 DoJE=T BraDBF=F KetDBF=T FulRan=T
         wScrn=  0.000000 ICntrl=     500 IOpCl=  0 I1Cent=   200000004 NGrid=           0
         NMat0=    1 NMatS0=      1 NMatT0=    0 NMatD0=    1 NMtDS0=    0 NMtDT0=    0
 Petite list used in FoFCou.
 Harris En= -323.683677238981    
 JPrj=0 DoOrth=F DoCkMO=F.
 Initial guess orbital symmetries:
       Occupied  (A') (A') (A') (A') (A') (A') (A') (A') (A') (A')
                 (A') (A') (A') (A') (A') (A') (A') (A') (A") (A')
                 (A') (A") (A") (A') (A")
       Virtual   (A") (A") (A') (A') (A') (A") (A') (A') (A') (A')
                 (A') (A') (A") (A') (A") (A") (A') (A') (A') (A')
                 (A') (A') (A") (A") (A') (A') (A') (A') (A') (A')
                 (A') (A") (A') (A") (A') (A') (A') (A') (A') (A')
                 (A') (A') (A') (A") (A') (A') (A') (A") (A") (A')
                 (A") (A") (A') (A') (A") (A') (A') (A") (A') (A')
                 (A') (A") (A') (A') (A") (A') (A") (A') (A') (A")
                 (A') (A") (A") (A') (A") (A') (A') (A") (A') (A')
                 (A") (A') (A') (A') (A") (A') (A") (A') (A") (A')
                 (A") (A') (A') (A') (A') (A") (A') (A') (A') (A")
                 (A') (A') (A") (A') (A') (A') (A') (A") (A') (A')
                 (A') (A") (A') (A') (A') (A') (A") (A') (A') (A')
                 (A") (A') (A") (A') (A") (A') (A") (A") (A') (A")
                 (A") (A') (A') (A') (A") (A') (A') (A') (A") (A')
                 (A') (A') (A') (A") (A") (A') (A") (A') (A') (A')
                 (A") (A') (A') (A") (A") (A') (A") (A') (A") (A')
                 (A") (A') (A') (A') (A") (A") (A') (A") (A') (A')
                 (A") (A') (A') (A") (A') (A') (A") (A") (A') (A")
                 (A") (A") (A') (A') (A") (A') (A") (A") (A') (A")
                 (A") (A') (A') (A") (A') (A') (A") (A') (A") (A")
                 (A') (A') (A") (A') (A') (A') (A") (A') (A') (A')
                 (A") (A') (A') (A") (A') (A") (A') (A') (A") (A")
                 (A') (A') (A") (A') (A') (A") (A') (A') (A') (A')
                 (A") (A') (A') (A') (A') (A") (A") (A') (A') (A')
                 (A') (A") (A') (A') (A') (A') (A') (A') (A') (A')
                 (A') (A') (A') (A') (A')
 The electronic state of the initial guess is 1-A'.
 Leave Link  401 at Fri Aug 27 00:08:04 2021, MaxMem= 17179869184 cpu:        50.7
 (Enter /public3/home/sc51754/softwares/g09e01/l502.exe)
 Closed shell SCF:
 Using DIIS extrapolation, IDIIS=  1040.
 Integral symmetry usage will be decided dynamically.
 Keep R1 ints in memory in symmetry-blocked form, NReq=1167802198.
 IVT=      348658 IEndB=      348658 NGot= 17179869184 MDV= 16785904737
 LenX= 16785904737 LenY= 16785801896
 Requested convergence on RMS density matrix=1.00D-08 within 128 cycles.
 Requested convergence on MAX density matrix=1.00D-06.
 Requested convergence on             energy=1.00D-06.
 No special actions if energy rises.
 FoFCou: FMM=F IPFlag=           0 FMFlag=           0 FMFlg1=           0
         NFxFlg=           0 DoJE=F BraDBF=F KetDBF=F FulRan=T
         wScrn=  0.000000 ICntrl=     600 IOpCl=  0 I1Cent=           0 NGrid=           0
         NMat0=    1 NMatS0=  39340 NMatT0=    0 NMatD0=    1 NMtDS0=    0 NMtDT0=    0
 Petite list used in FoFCou.
 Integral accuracy reduced to 1.0D-05 until final iterations.

 Cycle   1  Pass 0  IDiag  1:
 E= -323.257565722070    
 DIIS: error= 3.62D-02 at cycle   1 NSaved=   1.
 NSaved= 1 IEnMin= 1 EnMin= -323.257565722070     IErMin= 1 ErrMin= 3.62D-02
 ErrMax= 3.62D-02  0.00D+00 EMaxC= 1.00D-01 BMatC= 2.52D-01 BMatP= 2.52D-01
 IDIUse=3 WtCom= 6.38D-01 WtEn= 3.62D-01
 Coeff-Com:  0.100D+01
 Coeff-En:   0.100D+01
 Coeff:      0.100D+01
 Gap=     0.276 Goal=   None    Shift=    0.000
 GapD=    0.276 DampG=1.000 DampE=0.500 DampFc=0.5000 IDamp=-1.
 Damping current iteration by 5.00D-01
 RMSDP=2.42D-03 MaxDP=1.31D-01              OVMax= 1.79D-01

 Cycle   2  Pass 0  IDiag  1:
 E= -323.362469277110     Delta-E=       -0.104903555039 Rises=F Damp=T
 DIIS: error= 9.71D-03 at cycle   2 NSaved=   2.
 NSaved= 2 IEnMin= 2 EnMin= -323.362469277110     IErMin= 2 ErrMin= 9.71D-03
 ErrMax= 9.71D-03  0.00D+00 EMaxC= 1.00D-01 BMatC= 2.02D-02 BMatP= 2.52D-01
 IDIUse=3 WtCom= 9.03D-01 WtEn= 9.71D-02
 Coeff-Com: -0.166D+00 0.117D+01
 Coeff-En:   0.000D+00 0.100D+01
 Coeff:     -0.150D+00 0.115D+01
 Gap=     0.303 Goal=   None    Shift=    0.000
 RMSDP=6.05D-04 MaxDP=3.60D-02 DE=-1.05D-01 OVMax= 9.17D-02

 Cycle   3  Pass 0  IDiag  1:
 E= -323.457922964975     Delta-E=       -0.095453687865 Rises=F Damp=F
 DIIS: error= 2.53D-03 at cycle   3 NSaved=   3.
 NSaved= 3 IEnMin= 3 EnMin= -323.457922964975     IErMin= 3 ErrMin= 2.53D-03
 ErrMax= 2.53D-03  0.00D+00 EMaxC= 1.00D-01 BMatC= 3.08D-03 BMatP= 2.02D-02
 IDIUse=3 WtCom= 9.75D-01 WtEn= 2.53D-02
 Coeff-Com: -0.100D+00 0.300D+00 0.800D+00
 Coeff-En:   0.000D+00 0.000D+00 0.100D+01
 Coeff:     -0.977D-01 0.293D+00 0.805D+00
 Gap=     0.297 Goal=   None    Shift=    0.000
 RMSDP=1.86D-04 MaxDP=1.28D-02 DE=-9.55D-02 OVMax= 2.24D-02

 Cycle   4  Pass 0  IDiag  1:
 E= -323.459864763297     Delta-E=       -0.001941798322 Rises=F Damp=F
 DIIS: error= 2.21D-03 at cycle   4 NSaved=   4.
 NSaved= 4 IEnMin= 4 EnMin= -323.459864763297     IErMin= 4 ErrMin= 2.21D-03
 ErrMax= 2.21D-03  0.00D+00 EMaxC= 1.00D-01 BMatC= 7.17D-04 BMatP= 3.08D-03
 IDIUse=3 WtCom= 9.78D-01 WtEn= 2.21D-02
 Coeff-Com: -0.375D-01 0.728D-01 0.387D+00 0.578D+00
 Coeff-En:   0.000D+00 0.000D+00 0.146D+00 0.854D+00
 Coeff:     -0.367D-01 0.712D-01 0.382D+00 0.584D+00
 Gap=     0.296 Goal=   None    Shift=    0.000
 RMSDP=8.28D-05 MaxDP=3.33D-03 DE=-1.94D-03 OVMax= 1.20D-02

 Cycle   5  Pass 0  IDiag  1:
 E= -323.460534731744     Delta-E=       -0.000669968446 Rises=F Damp=F
 DIIS: error= 5.58D-04 at cycle   5 NSaved=   5.
 NSaved= 5 IEnMin= 5 EnMin= -323.460534731744     IErMin= 5 ErrMin= 5.58D-04
 ErrMax= 5.58D-04  0.00D+00 EMaxC= 1.00D-01 BMatC= 4.49D-05 BMatP= 7.17D-04
 IDIUse=3 WtCom= 9.94D-01 WtEn= 5.58D-03
 Coeff-Com: -0.688D-02 0.513D-02 0.893D-01 0.252D+00 0.660D+00
 Coeff-En:   0.000D+00 0.000D+00 0.000D+00 0.000D+00 0.100D+01
 Coeff:     -0.684D-02 0.510D-02 0.888D-01 0.251D+00 0.662D+00
 Gap=     0.296 Goal=   None    Shift=    0.000
 RMSDP=1.96D-05 MaxDP=9.72D-04 DE=-6.70D-04 OVMax= 2.82D-03

 Cycle   6  Pass 0  IDiag  1:
 E= -323.460576471108     Delta-E=       -0.000041739365 Rises=F Damp=F
 DIIS: error= 1.08D-04 at cycle   6 NSaved=   6.
 NSaved= 6 IEnMin= 6 EnMin= -323.460576471108     IErMin= 6 ErrMin= 1.08D-04
 ErrMax= 1.08D-04  0.00D+00 EMaxC= 1.00D-01 BMatC= 2.63D-06 BMatP= 4.49D-05
 IDIUse=3 WtCom= 9.99D-01 WtEn= 1.08D-03
 Coeff-Com: -0.160D-02-0.796D-03 0.249D-01 0.894D-01 0.297D+00 0.591D+00
 Coeff-En:   0.000D+00 0.000D+00 0.000D+00 0.000D+00 0.000D+00 0.100D+01
 Coeff:     -0.160D-02-0.795D-03 0.248D-01 0.893D-01 0.296D+00 0.592D+00
 Gap=     0.296 Goal=   None    Shift=    0.000
 RMSDP=4.46D-06 MaxDP=2.21D-04 DE=-4.17D-05 OVMax= 4.66D-04

 Initial convergence to 1.0D-05 achieved.  Increase integral accuracy.
 Cycle   7  Pass 1  IDiag  1:
 E= -323.460538529029     Delta-E=        0.000037942079 Rises=F Damp=F
 DIIS: error= 2.33D-05 at cycle   1 NSaved=   1.
 NSaved= 1 IEnMin= 1 EnMin= -323.460538529029     IErMin= 1 ErrMin= 2.33D-05
 ErrMax= 2.33D-05  0.00D+00 EMaxC= 1.00D-01 BMatC= 2.12D-07 BMatP= 2.12D-07
 IDIUse=1 WtCom= 1.00D+00 WtEn= 0.00D+00
 Coeff-Com:  0.100D+01
 Coeff:      0.100D+01
 Gap=     0.296 Goal=   None    Shift=    0.000
 RMSDP=4.46D-06 MaxDP=2.21D-04 DE= 3.79D-05 OVMax= 2.57D-04

 Cycle   8  Pass 1  IDiag  1:
 E= -323.460538640968     Delta-E=       -0.000000111939 Rises=F Damp=F
 DIIS: error= 2.52D-05 at cycle   2 NSaved=   2.
 NSaved= 2 IEnMin= 2 EnMin= -323.460538640968     IErMin= 1 ErrMin= 2.33D-05
 ErrMax= 2.52D-05  0.00D+00 EMaxC= 1.00D-01 BMatC= 1.92D-07 BMatP= 2.12D-07
 IDIUse=1 WtCom= 1.00D+00 WtEn= 0.00D+00
 Coeff-Com:  0.485D+00 0.515D+00
 Coeff:      0.485D+00 0.515D+00
 Gap=     0.296 Goal=   None    Shift=    0.000
 RMSDP=1.23D-06 MaxDP=6.43D-05 DE=-1.12D-07 OVMax= 1.47D-04

 Cycle   9  Pass 1  IDiag  1:
 E= -323.460538807135     Delta-E=       -0.000000166167 Rises=F Damp=F
 DIIS: error= 5.45D-06 at cycle   3 NSaved=   3.
 NSaved= 3 IEnMin= 3 EnMin= -323.460538807135     IErMin= 3 ErrMin= 5.45D-06
 ErrMax= 5.45D-06  0.00D+00 EMaxC= 1.00D-01 BMatC= 9.87D-09 BMatP= 1.92D-07
 IDIUse=1 WtCom= 1.00D+00 WtEn= 0.00D+00
 Coeff-Com: -0.342D-01 0.143D+00 0.891D+00
 Coeff:     -0.342D-01 0.143D+00 0.891D+00
 Gap=     0.296 Goal=   None    Shift=    0.000
 RMSDP=5.42D-07 MaxDP=1.68D-05 DE=-1.66D-07 OVMax= 5.63D-05

 Cycle  10  Pass 1  IDiag  1:
 E= -323.460538818116     Delta-E=       -0.000000010981 Rises=F Damp=F
 DIIS: error= 3.87D-06 at cycle   4 NSaved=   4.
 NSaved= 4 IEnMin= 4 EnMin= -323.460538818116     IErMin= 4 ErrMin= 3.87D-06
 ErrMax= 3.87D-06  0.00D+00 EMaxC= 1.00D-01 BMatC= 1.89D-09 BMatP= 9.87D-09
 IDIUse=1 WtCom= 1.00D+00 WtEn= 0.00D+00
 Coeff-Com: -0.543D-01 0.268D-01 0.413D+00 0.615D+00
 Coeff:     -0.543D-01 0.268D-01 0.413D+00 0.615D+00
 Gap=     0.296 Goal=   None    Shift=    0.000
 RMSDP=1.43D-07 MaxDP=6.26D-06 DE=-1.10D-08 OVMax= 2.16D-05

 Cycle  11  Pass 1  IDiag  1:
 E= -323.460538820135     Delta-E=       -0.000000002019 Rises=F Damp=F
 DIIS: error= 6.61D-07 at cycle   5 NSaved=   5.
 NSaved= 5 IEnMin= 5 EnMin= -323.460538820135     IErMin= 5 ErrMin= 6.61D-07
 ErrMax= 6.61D-07  0.00D+00 EMaxC= 1.00D-01 BMatC= 1.48D-10 BMatP= 1.89D-09
 IDIUse=1 WtCom= 1.00D+00 WtEn= 0.00D+00
 Coeff-Com: -0.125D-01-0.994D-02-0.164D-02 0.195D+00 0.829D+00
 Coeff:     -0.125D-01-0.994D-02-0.164D-02 0.195D+00 0.829D+00
 Gap=     0.296 Goal=   None    Shift=    0.000
 RMSDP=5.52D-08 MaxDP=1.87D-06 DE=-2.02D-09 OVMax= 7.17D-06

 Cycle  12  Pass 1  IDiag  1:
 E= -323.460538820340     Delta-E=       -0.000000000205 Rises=F Damp=F
 DIIS: error= 2.57D-07 at cycle   6 NSaved=   6.
 NSaved= 6 IEnMin= 6 EnMin= -323.460538820340     IErMin= 6 ErrMin= 2.57D-07
 ErrMax= 2.57D-07  0.00D+00 EMaxC= 1.00D-01 BMatC= 1.52D-11 BMatP= 1.48D-10
 IDIUse=1 WtCom= 1.00D+00 WtEn= 0.00D+00
 Coeff-Com:  0.339D-02-0.555D-02-0.562D-01-0.145D-01 0.251D+00 0.822D+00
 Coeff:      0.339D-02-0.555D-02-0.562D-01-0.145D-01 0.251D+00 0.822D+00
 Gap=     0.296 Goal=   None    Shift=    0.000
 RMSDP=2.07D-08 MaxDP=8.45D-07 DE=-2.05D-10 OVMax= 2.52D-06

 Cycle  13  Pass 1  IDiag  1:
 E= -323.460538820357     Delta-E=       -0.000000000017 Rises=F Damp=F
 DIIS: error= 9.10D-08 at cycle   7 NSaved=   7.
 NSaved= 7 IEnMin= 7 EnMin= -323.460538820357     IErMin= 7 ErrMin= 9.10D-08
 ErrMax= 9.10D-08  0.00D+00 EMaxC= 1.00D-01 BMatC= 2.50D-12 BMatP= 1.52D-11
 IDIUse=1 WtCom= 1.00D+00 WtEn= 0.00D+00
 Coeff-Com:  0.242D-02-0.133D-02-0.237D-01-0.223D-01 0.324D-01 0.344D+00
 Coeff-Com:  0.668D+00
 Coeff:      0.242D-02-0.133D-02-0.237D-01-0.223D-01 0.324D-01 0.344D+00
 Coeff:      0.668D+00
 Gap=     0.296 Goal=   None    Shift=    0.000
 RMSDP=5.95D-09 MaxDP=3.28D-07 DE=-1.71D-11 OVMax= 8.71D-07

 SCF Done:  E(RBHandHLYP) =  -323.460538820     A.U. after   13 cycles
            NFock= 13  Conv=0.59D-08     -V/T= 2.0037
 KE= 3.222830189825D+02 PE=-1.309847007603D+03 EE= 3.865797788388D+02
 Leave Link  502 at Fri Aug 27 00:08:11 2021, MaxMem= 17179869184 cpu:       229.5
 (Enter /public3/home/sc51754/softwares/g09e01/l601.exe)
 Copying SCF densities to generalized density rwf, IOpCl= 0 IROHF=0.

 **********************************************************************

            Population analysis using the SCF density.

 **********************************************************************

 Orbital symmetries:
       Occupied  (A') (A') (A') (A') (A') (A') (A') (A') (A') (A')
                 (A') (A') (A') (A') (A') (A') (A') (A") (A') (A')
                 (A') (A") (A') (A") (A")
       Virtual   (A") (A") (A') (A') (A') (A') (A') (A') (A") (A')
                 (A") (A') (A') (A') (A") (A") (A') (A') (A') (A")
                 (A') (A") (A') (A') (A') (A') (A') (A') (A') (A')
                 (A') (A") (A') (A') (A") (A') (A') (A') (A') (A')
                 (A') (A') (A") (A') (A') (A') (A') (A") (A") (A")
                 (A') (A") (A') (A') (A") (A') (A") (A') (A') (A')
                 (A') (A') (A') (A") (A') (A') (A") (A') (A") (A')
                 (A") (A") (A") (A') (A") (A') (A') (A") (A') (A')
                 (A') (A") (A') (A') (A') (A") (A") (A') (A") (A')
                 (A") (A') (A') (A') (A') (A") (A') (A') (A') (A")
                 (A') (A') (A") (A') (A') (A') (A") (A') (A') (A')
                 (A') (A") (A') (A') (A') (A') (A") (A') (A') (A')
                 (A") (A') (A") (A') (A") (A') (A") (A") (A') (A")
                 (A") (A') (A') (A') (A") (A') (A') (A") (A') (A')
                 (A') (A') (A") (A') (A") (A') (A") (A') (A') (A')
                 (A") (A') (A') (A") (A") (A') (A") (A') (A") (A")
                 (A') (A') (A') (A') (A") (A") (A') (A") (A') (A')
                 (A') (A") (A') (A") (A') (A') (A") (A') (A") (A")
                 (A") (A') (A") (A') (A") (A') (A") (A") (A') (A")
                 (A") (A') (A') (A") (A') (A') (A") (A') (A") (A")
                 (A') (A') (A") (A') (A') (A') (A") (A') (A') (A')
                 (A") (A') (A") (A') (A') (A') (A") (A') (A") (A")
                 (A') (A') (A") (A') (A') (A") (A') (A') (A') (A')
                 (A") (A') (A') (A') (A') (A") (A') (A') (A") (A')
                 (A') (A') (A") (A') (A') (A') (A') (A') (A') (A')
                 (A') (A') (A') (A') (A')
 The electronic state is 1-A'.
 Alpha  occ. eigenvalues --  -19.71265 -14.79806 -10.68654 -10.62877 -10.61078
 Alpha  occ. eigenvalues --  -10.59335 -10.58915  -1.22549  -1.07538  -0.93097
 Alpha  occ. eigenvalues --   -0.87341  -0.74967  -0.72876  -0.64311  -0.60361
 Alpha  occ. eigenvalues --   -0.56613  -0.52545  -0.51883  -0.49636  -0.47686
 Alpha  occ. eigenvalues --   -0.44647  -0.42915  -0.34639  -0.34356  -0.28894
 Alpha virt. eigenvalues --    0.00712   0.03645   0.04704   0.05905   0.06807
 Alpha virt. eigenvalues --    0.08903   0.10573   0.17227   0.18316   0.19031
 Alpha virt. eigenvalues --    0.19616   0.19948   0.22013   0.22571   0.23776
 Alpha virt. eigenvalues --    0.23946   0.25944   0.29381   0.30838   0.30964
 Alpha virt. eigenvalues --    0.32702   0.34078   0.34126   0.34448   0.37329
 Alpha virt. eigenvalues --    0.37956   0.41199   0.42163   0.42880   0.43729
 Alpha virt. eigenvalues --    0.44532   0.46361   0.49335   0.49836   0.50065
 Alpha virt. eigenvalues --    0.54547   0.56561   0.57177   0.60050   0.62758
 Alpha virt. eigenvalues --    0.67635   0.69302   0.70905   0.71123   0.72933
 Alpha virt. eigenvalues --    0.74389   0.78384   0.83035   0.84215   0.88088
 Alpha virt. eigenvalues --    0.90028   0.93555   0.94449   0.97933   0.99904
 Alpha virt. eigenvalues --    1.02535   1.04597   1.04668   1.05817   1.08184
 Alpha virt. eigenvalues --    1.10819   1.16198   1.18395   1.18454   1.22067
 Alpha virt. eigenvalues --    1.23106   1.23221   1.26512   1.26611   1.27768
 Alpha virt. eigenvalues --    1.30887   1.35455   1.38129   1.38472   1.39043
 Alpha virt. eigenvalues --    1.39937   1.45476   1.50130   1.50745   1.52750
 Alpha virt. eigenvalues --    1.58167   1.59076   1.60065   1.62564   1.63306
 Alpha virt. eigenvalues --    1.64979   1.67359   1.70147   1.71870   1.75458
 Alpha virt. eigenvalues --    1.76028   1.76503   1.79812   1.82268   1.83206
 Alpha virt. eigenvalues --    1.88763   1.90285   1.92562   1.95791   1.95982
 Alpha virt. eigenvalues --    1.98704   2.05816   2.06945   2.07782   2.11942
 Alpha virt. eigenvalues --    2.16919   2.22174   2.22414   2.25815   2.29409
 Alpha virt. eigenvalues --    2.33322   2.34912   2.36805   2.38532   2.41529
 Alpha virt. eigenvalues --    2.46371   2.52594   2.70965   2.80188   2.86147
 Alpha virt. eigenvalues --    2.98658   3.07162   3.07953   3.14147   3.27280
 Alpha virt. eigenvalues --    3.29675   3.32933   3.35691   3.38732   3.39079
 Alpha virt. eigenvalues --    3.43583   3.47060   3.47888   3.52028   3.52554
 Alpha virt. eigenvalues --    3.56239   3.60433   3.60553   3.63127   3.70102
 Alpha virt. eigenvalues --    3.70859   3.73058   3.74210   3.74610   3.81004
 Alpha virt. eigenvalues --    3.84164   3.85627   3.90911   3.94290   3.95678
 Alpha virt. eigenvalues --    3.97147   4.00342   4.03721   4.05506   4.09502
 Alpha virt. eigenvalues --    4.10592   4.13088   4.17115   4.18129   4.19639
 Alpha virt. eigenvalues --    4.20193   4.22760   4.25509   4.29314   4.29720
 Alpha virt. eigenvalues --    4.31398   4.32995   4.34501   4.34967   4.37120
 Alpha virt. eigenvalues --    4.40230   4.40501   4.42671   4.45160   4.45534
 Alpha virt. eigenvalues --    4.46034   4.46354   4.51096   4.52180   4.53763
 Alpha virt. eigenvalues --    4.56754   4.57812   4.57854   4.59103   4.60929
 Alpha virt. eigenvalues --    4.62891   4.62922   4.63970   4.67961   4.70223
 Alpha virt. eigenvalues --    4.72336   4.72545   4.77375   4.78647   4.80928
 Alpha virt. eigenvalues --    4.87291   4.89536   4.93195   4.97569   5.01328
 Alpha virt. eigenvalues --    5.03114   5.03966   5.11524   5.13072   5.17966
 Alpha virt. eigenvalues --    5.22203   5.23436   5.25728   5.32679   5.34200
 Alpha virt. eigenvalues --    5.37120   5.37901   5.41947   5.46442   5.47747
 Alpha virt. eigenvalues --    5.50661   5.51502   5.53561   5.54224   5.57502
 Alpha virt. eigenvalues --    5.57720   5.60831   5.67864   5.70950   5.75735
 Alpha virt. eigenvalues --    5.79113   5.79835   5.82622   5.92560   5.94751
 Alpha virt. eigenvalues --    5.96336   6.14213   6.18841   6.23147   6.23474
 Alpha virt. eigenvalues --    6.23629   6.40514   6.42049   6.43651   6.44363
 Alpha virt. eigenvalues --    6.61165   6.63919   6.66266   6.78753   6.86658
 Alpha virt. eigenvalues --    7.10284   7.30022   7.49968   9.38361  12.20908
 Alpha virt. eigenvalues --   12.84590  15.66182  17.59030  18.84288  22.46672
          Condensed to atoms (all electrons):
               1          2          3          4          5          6
     1  O    7.915367  -0.096790   0.307391  -0.058130   0.003723   0.007291
     2  N   -0.096790   6.630308   0.513649  -0.012833   0.530392  -0.036165
     3  C    0.307391   0.513649   4.326229   0.531637  -0.084493  -0.059331
     4  C   -0.058130  -0.012833   0.531637   4.804600  -0.044968   0.549126
     5  C    0.003723   0.530392  -0.084493  -0.044968   4.508063  -0.078244
     6  C    0.007291  -0.036165  -0.059331   0.549126  -0.078244   4.639154
     7  C   -0.000684  -0.034610  -0.052504  -0.044917   0.539894   0.518605
     8  H    0.356579   0.009907  -0.032560   0.011151   0.001077  -0.001884
     9  H    0.004089   0.006457  -0.025701   0.429996  -0.001898  -0.030113
    10  H   -0.000428  -0.041944   0.003955  -0.004460   0.450816   0.007736
    11  H   -0.000262  -0.002200   0.006288  -0.033547   0.006282   0.436488
    12  H    0.000031   0.006877  -0.001026   0.006563  -0.025504  -0.030184
               7          8          9         10         11         12
     1  O   -0.000684   0.356579   0.004089  -0.000428  -0.000262   0.000031
     2  N   -0.034610   0.009907   0.006457  -0.041944  -0.002200   0.006877
     3  C   -0.052504  -0.032560  -0.025701   0.003955   0.006288  -0.001026
     4  C   -0.044917   0.011151   0.429996  -0.004460  -0.033547   0.006563
     5  C    0.539894   0.001077  -0.001898   0.450816   0.006282  -0.025504
     6  C    0.518605  -0.001884  -0.030113   0.007736   0.436488  -0.030184
     7  C    4.892058   0.000993   0.006501  -0.066862  -0.035960   0.431027
     8  H    0.000993   0.431677  -0.000589  -0.000475   0.000069  -0.000036
     9  H    0.006501  -0.000589   0.582721   0.000153  -0.005790  -0.000078
    10  H   -0.066862  -0.000475   0.000153   0.615007  -0.000151  -0.003052
    11  H   -0.035960   0.000069  -0.005790  -0.000151   0.595653  -0.005535
    12  H    0.431027  -0.000036  -0.000078  -0.003052  -0.005535   0.597497
 Mulliken charges:
               1
     1  O   -0.438176
     2  N   -0.473048
     3  C    0.566466
     4  C   -0.134217
     5  C    0.194860
     6  C    0.077522
     7  C   -0.153540
     8  H    0.224090
     9  H    0.034253
    10  H    0.039705
    11  H    0.038666
    12  H    0.023418
 Sum of Mulliken charges =  -0.00000
 Mulliken charges with hydrogens summed into heavy atoms:
               1
     1  O   -0.214086
     2  N   -0.473048
     3  C    0.566466
     4  C   -0.099965
     5  C    0.234565
     6  C    0.116189
     7  C   -0.130122
 Electronic spatial extent (au):  <R**2>=            623.8614
 Charge=             -0.0000 electrons
 Dipole moment (field-independent basis, Debye):
    X=              0.5007    Y=             -1.3322    Z=             -0.0000  Tot=              1.4232
 Quadrupole moment (field-independent basis, Debye-Ang):
   XX=            -37.7376   YY=            -36.8929   ZZ=            -43.2822
   XY=             -2.0866   XZ=              0.0000   YZ=              0.0000
 Traceless Quadrupole moment (field-independent basis, Debye-Ang):
   XX=              1.5666   YY=              2.4113   ZZ=             -3.9779
   XY=             -2.0866   XZ=              0.0000   YZ=              0.0000
 Octapole moment (field-independent basis, Debye-Ang**2):
  XXX=              6.3269  YYY=              3.8097  ZZZ=              0.0000  XYY=            -11.0273
  XXY=              0.2231  XXZ=              0.0000  XZZ=             -1.4517  YZZ=              5.6609
  YYZ=             -0.0000  XYZ=              0.0000
 Hexadecapole moment (field-independent basis, Debye-Ang**3):
 XXXX=           -264.6654 YYYY=           -456.6288 ZZZZ=            -47.8133 XXXY=              8.8482
 XXXZ=              0.0000 YYYX=            -30.4787 YYYZ=              0.0000 ZZZX=              0.0000
 ZZZY=              0.0000 XXYY=           -108.2158 XXZZ=            -59.7690 YYZZ=            -97.3303
 XXYZ=              0.0000 YYXZ=              0.0000 ZZXY=              0.6620
 N-N= 2.775236709615D+02 E-N=-1.309847000215D+03  KE= 3.222830189825D+02
 Symmetry A'   KE= 3.107363323374D+02
 Symmetry A"   KE= 1.154668664508D+01
 No NMR shielding tensors so no spin-rotation constants.
 Leave Link  601 at Fri Aug 27 00:08:12 2021, MaxMem= 17179869184 cpu:        85.3
 (Enter /public3/home/sc51754/softwares/g09e01/l701.exe)
 Compute integral first derivatives.
 ... and contract with generalized density number  0.
 Leave Link  701 at Fri Aug 27 00:08:14 2021, MaxMem= 17179869184 cpu:        67.9
 (Enter /public3/home/sc51754/softwares/g09e01/l702.exe)
 L702 exits ... SP integral derivatives will be done elsewhere.
 Leave Link  702 at Fri Aug 27 00:08:14 2021, MaxMem= 17179869184 cpu:         0.2
 (Enter /public3/home/sc51754/softwares/g09e01/l703.exe)
 Compute integral first derivatives, UseDBF=F ICtDFT=           0.
 Integral derivatives from FoFJK, PRISM(SPDF).
 Calling FoFJK, ICntrl=      2127 FMM=F ISym2X=1 I1Cent= 0 IOpClX= 0 NMat=1 NMatS=1 NMatT=0.
 FoFJK:  IHMeth= 1 ICntrl=    2127 DoSepK=F KAlg= 0 I1Cent=   0 FoldK=F
 IRaf=         0 NMat=   1 IRICut=       1 DoRegI=T DoRafI=F ISym2E= 1.
 FoFCou: FMM=F IPFlag=           0 FMFlag=      100000 FMFlg1=         800
         NFxFlg=           0 DoJE=F BraDBF=F KetDBF=F FulRan=T
         wScrn=  0.000000 ICntrl=    2127 IOpCl=  0 I1Cent=           0 NGrid=           0
         NMat0=    1 NMatS0=      1 NMatT0=    0 NMatD0=    1 NMtDS0=    0 NMtDT0=    0
 Petite list used in FoFCou.
 Leave Link  703 at Fri Aug 27 00:08:16 2021, MaxMem= 17179869184 cpu:       152.3
 (Enter /public3/home/sc51754/softwares/g09e01/l716.exe)
 Dipole        = 1.96978117D-01-5.24119319D-01-2.13376992D-32
 ***** Axes restored to original set *****
 -------------------------------------------------------------------
 Center     Atomic                   Forces (Hartrees/Bohr)
 Number     Number              X              Y              Z
 -------------------------------------------------------------------
      1        8          -0.011136354   -0.002575077   -0.000000000
      2        7           0.007862661   -0.002133891    0.000000000
      3        6          -0.001745356   -0.002869991    0.000000000
      4        6           0.000787367    0.000903063   -0.000000000
      5        6          -0.001722378    0.000054806   -0.000000000
      6        6           0.001677357   -0.000696567    0.000000000
      7        6          -0.001122439   -0.000927156   -0.000000000
      8        1           0.009258788   -0.000924097    0.000000000
      9        1          -0.005330376   -0.003256404   -0.000000000
     10        1           0.006170163    0.003370648    0.000000000
     11        1          -0.004984541    0.003178888   -0.000000000
     12        1           0.000285107    0.005875779   -0.000000000
 -------------------------------------------------------------------
 Cartesian Forces:  Max     0.011136354 RMS     0.003585140
 Leave Link  716 at Fri Aug 27 00:08:16 2021, MaxMem= 17179869184 cpu:         0.4
 (Enter /public3/home/sc51754/softwares/g09e01/l103.exe)

 GradGradGradGradGradGradGradGradGradGradGradGradGradGradGradGradGradGrad
 Berny optimization.
 FormGI is forming the generalized inverse of G from B-inverse, IUseBI=4.
 Internal  Forces:  Max     0.009132022 RMS     0.003049483
 Search for a local minimum.
 Step number   1 out of a maximum of   61
 All quantities printed in internal units (Hartrees-Bohrs-Radians)
 RMS Force = .30495D-02 SwitMx=.10000D-02 MixMth= 1
 Mixed Optimization -- RFO/linear search
 Second derivative matrix not updated -- first step.
 ITU=  0
     Eigenvalues ---    0.02265   0.02291   0.02312   0.02345   0.02366
     Eigenvalues ---    0.02409   0.02454   0.02466   0.02614   0.16000
     Eigenvalues ---    0.16000   0.16000   0.16000   0.16000   0.22000
     Eigenvalues ---    0.22422   0.24442   0.25000   0.35406   0.35728
     Eigenvalues ---    0.35970   0.35990   0.43621   0.45785   0.48169
     Eigenvalues ---    0.49389   0.54882   0.56881   0.57480   0.60970
 RFO step:  Lambda=-1.06392941D-03 EMin= 2.26525640D-02
 Linear search not attempted -- first point.
 Iteration  1 RMS(Cart)=  0.00913032 RMS(Int)=  0.00003984
 Iteration  2 RMS(Cart)=  0.00005109 RMS(Int)=  0.00000104
 Iteration  3 RMS(Cart)=  0.00000000 RMS(Int)=  0.00000104
 ITry= 1 IFail=0 DXMaxC= 2.71D-02 DCOld= 1.00D+10 DXMaxT= 3.00D-01 DXLimC= 3.00D+00 Rises=F
 ClnCor:  largest displacement from symmetrization is 1.46D-13 for atom    11.
 Variable       Old X    -DE/DX   Delta X   Delta X   Delta X     New X
                                 (Linear)    (Quad)   (Total)
    R1        2.53498  -0.00351   0.00000  -0.00616  -0.00616   2.52882
    R2        1.81937  -0.00913   0.00000  -0.01661  -0.01661   1.80276
    R3        2.48913  -0.00881   0.00000  -0.01441  -0.01441   2.47472
    R4        2.51605  -0.00624   0.00000  -0.01084  -0.01083   2.50521
    R5        2.63173  -0.00474   0.00000  -0.01022  -0.01022   2.62151
    R6        2.59740  -0.00463   0.00000  -0.00883  -0.00884   2.58856
    R7        2.04128  -0.00625   0.00000  -0.01731  -0.01731   2.02397
    R8        2.60360  -0.00532   0.00000  -0.01065  -0.01065   2.59295
    R9        2.05020  -0.00702   0.00000  -0.01977  -0.01977   2.03043
   R10        2.62604  -0.00426   0.00000  -0.00847  -0.00847   2.61757
   R11        2.04509  -0.00591   0.00000  -0.01649  -0.01649   2.02859
   R12        2.04097  -0.00588   0.00000  -0.01630  -0.01630   2.02467
    A1        1.85547   0.00322   0.00000   0.01997   0.01997   1.87544
    A2        2.05525   0.00094   0.00000   0.00143   0.00143   2.05668
    A3        2.05194  -0.00088   0.00000  -0.00304  -0.00304   2.04890
    A4        2.06888   0.00062   0.00000   0.00295   0.00294   2.07183
    A5        2.16236   0.00026   0.00000   0.00009   0.00010   2.16246
    A6        2.04920  -0.00018   0.00000   0.00005   0.00004   2.04924
    A7        2.09344   0.00011   0.00000   0.00014   0.00014   2.09358
    A8        2.14055   0.00006   0.00000  -0.00019  -0.00019   2.14037
    A9        2.15386   0.00015   0.00000   0.00017   0.00017   2.15403
   A10        2.02490  -0.00047   0.00000  -0.00254  -0.00254   2.02235
   A11        2.10443   0.00032   0.00000   0.00238   0.00238   2.10680
   A12        2.08852  -0.00069   0.00000  -0.00100  -0.00100   2.08752
   A13        2.09426   0.00023   0.00000  -0.00021  -0.00021   2.09406
   A14        2.10040   0.00046   0.00000   0.00121   0.00121   2.10160
   A15        2.05718  -0.00048   0.00000  -0.00074  -0.00074   2.05644
   A16        2.10510   0.00019   0.00000   0.00002   0.00002   2.10512
   A17        2.12091   0.00030   0.00000   0.00072   0.00072   2.12162
    D1        0.00000  -0.00000   0.00000  -0.00000  -0.00000   0.00000
    D2        3.14159   0.00000   0.00000   0.00000   0.00000   3.14159
    D3        3.14159   0.00000   0.00000   0.00000   0.00000   3.14159
    D4        0.00000  -0.00000   0.00000  -0.00000   0.00000   0.00000
    D5       -0.00000   0.00000   0.00000   0.00000   0.00000   0.00000
    D6        3.14159   0.00000   0.00000   0.00000   0.00000   3.14159
    D7        3.14159  -0.00000   0.00000  -0.00000   0.00000   3.14159
    D8        0.00000  -0.00000   0.00000  -0.00000  -0.00000   0.00000
    D9       -0.00000  -0.00000   0.00000   0.00000   0.00000   0.00000
   D10        3.14159   0.00000   0.00000   0.00000   0.00000   3.14159
   D11        0.00000   0.00000   0.00000  -0.00000   0.00000   0.00000
   D12        3.14159   0.00000   0.00000   0.00000   0.00000   3.14159
   D13        3.14159  -0.00000   0.00000  -0.00000   0.00000   3.14159
   D14       -0.00000  -0.00000   0.00000   0.00000   0.00000   0.00000
   D15       -0.00000   0.00000   0.00000  -0.00000   0.00000   0.00000
   D16        3.14159   0.00000   0.00000  -0.00000   0.00000   3.14159
   D17        3.14159  -0.00000   0.00000  -0.00000   0.00000   3.14159
   D18       -0.00000  -0.00000   0.00000  -0.00000   0.00000   0.00000
   D19        0.00000  -0.00000   0.00000   0.00000  -0.00000   0.00000
   D20        3.14159  -0.00000   0.00000  -0.00000   0.00000   3.14159
   D21        3.14159  -0.00000   0.00000  -0.00000   0.00000   3.14159
   D22       -0.00000  -0.00000   0.00000  -0.00000   0.00000   0.00000
         Item               Value     Threshold  Converged?
 Maximum Force            0.009132     0.000450     NO 
 RMS     Force            0.003049     0.000300     NO 
 Maximum Displacement     0.027120     0.001800     NO 
 RMS     Displacement     0.009134     0.001200     NO 
 Predicted change in Energy=-5.333964D-04
 Lowest energy point so far.  Saving SCF results.
 GradGradGradGradGradGradGradGradGradGradGradGradGradGradGradGradGradGrad

 Leave Link  103 at Fri Aug 27 00:08:17 2021, MaxMem= 17179869184 cpu:        12.7
 (Enter /public3/home/sc51754/softwares/g09e01/l202.exe)
                          Input orientation:                          
 ---------------------------------------------------------------------
 Center     Atomic      Atomic             Coordinates (Angstroms)
 Number     Number       Type             X           Y           Z
 ---------------------------------------------------------------------
      1          8           0        0.002397    2.229163   -0.000000
      2          7           0       -1.164615    0.291021   -0.000000
      3          6           0       -0.000561    0.890975   -0.000000
      4          6           0        1.214698    0.221950    0.000000
      5          6           0       -1.177862   -1.034614   -0.000000
      6          6           0        1.180735   -1.147438    0.000000
      7          6           0       -0.040175   -1.801687    0.000000
      8          1           0       -0.907022    2.517325   -0.000000
      9          1           0        2.130697    0.776987    0.000000
     10          1           0       -2.149266   -1.493786   -0.000000
     11          1           0        2.096997   -1.706758    0.000000
     12          1           0       -0.103242   -2.871238    0.000000
 ---------------------------------------------------------------------
                    Distance matrix (angstroms):
                    1          2          3          4          5
     1  O    0.000000
     2  N    2.262368   0.000000
     3  C    1.338192   1.309567   0.000000
     4  C    2.344905   2.380315   1.387245   0.000000
     5  C    3.470627   1.325702   2.256974   2.702461   0.000000
     6  C    3.576300   2.751333   2.355969   1.369809   2.361295
     7  C    4.031075   2.375667   2.692953   2.381136   1.372127
     8  H    0.953981   2.241157   1.861904   3.125771   3.562251
     9  H    2.576524   3.330952   2.134304   1.071037   3.772063
    10  H    4.300001   2.038400   3.209987   3.776241   1.074459
    11  H    4.458567   3.824818   3.338856   2.120935   3.343124
    12  H    5.101495   3.335625   3.763614   3.362257   2.127909
                    6          7          8          9         10
     6  C    0.000000
     7  C    1.385158   0.000000
     8  H    4.217727   4.405143   0.000000
     9  H    2.146122   3.370792   3.500930   0.000000
    10  H    3.347964   2.131447   4.199070   4.845048   0.000000
    11  H    1.073486   2.139279   5.183339   2.483973   4.251600
    12  H    2.149438   1.071409   5.448181   4.277853   2.466493
                   11         12
    11  H    0.000000
    12  H    2.489390   0.000000
 Stoichiometry    C5H5NO
 Framework group  CS[SG(C5H5NO)]
 Deg. of freedom    21
 Full point group                 CS      NOp   2
 RotChk:  IX=0 Diff= 7.62D-04
 Largest Abelian subgroup         CS      NOp   2
 Largest concise Abelian subgroup C1      NOp   1
                         Standard orientation:                         
 ---------------------------------------------------------------------
 Center     Atomic      Atomic             Coordinates (Angstroms)
 Number     Number       Type             X           Y           Z
 ---------------------------------------------------------------------
      1          8           0        0.003679    2.231800   -0.000000
      2          7           0       -1.164377    0.294287   -0.000000
      3          6           0       -0.000000    0.893613   -0.000000
      4          6           0        1.214898    0.223933    0.000000
      5          6           0       -1.178340   -1.031341   -0.000000
      6          6           0        1.180197   -1.145437    0.000000
      7          6           0       -0.041066   -1.799027    0.000000
      8          1           0       -0.905584    2.520452   -0.000000
      9          1           0        2.131196    0.778475    0.000000
     10          1           0       -2.149990   -1.489989   -0.000000
     11          1           0        2.096156   -1.705250    0.000000
     12          1           0       -0.104710   -2.868544    0.000000
 ---------------------------------------------------------------------
 Rotational constants (GHZ):      5.9808924      2.8250364      1.9187344
 Leave Link  202 at Fri Aug 27 00:08:17 2021, MaxMem= 17179869184 cpu:         3.0
 (Enter /public3/home/sc51754/softwares/g09e01/l301.exe)
 Basis read from rwf:  (5D, 7F)
 No pseudopotential information found on rwf file.
 There are   223 symmetry adapted cartesian basis functions of A'  symmetry.
 There are    97 symmetry adapted cartesian basis functions of A"  symmetry.
 There are   190 symmetry adapted basis functions of A'  symmetry.
 There are    90 symmetry adapted basis functions of A"  symmetry.
   280 basis functions,   475 primitive gaussians,   320 cartesian basis functions
    25 alpha electrons       25 beta electrons
       nuclear repulsion energy       278.7009534075 Hartrees.
 IExCor=  402 DFT=T Ex+Corr=BHandHLYP ExCW=0 ScaHFX=  0.500000
 ScaDFX=  0.500000  0.500000  1.000000  1.000000 ScalE2=  1.000000  1.000000
 IRadAn=      0 IRanWt=     -1 IRanGd=            0 ICorTp=0 IEmpDi=  4
 NAtoms=   12 NActive=   12 NUniq=   12 SFac= 1.00D+00 NAtFMM=   60 NAOKFM=F Big=F
 Integral buffers will be    131072 words long.
 Raffenetti 2 integral format.
 Two-electron integral symmetry is turned on.
 No density basis found on file   724.
 Leave Link  301 at Fri Aug 27 00:08:17 2021, MaxMem= 17179869184 cpu:         1.0
 (Enter /public3/home/sc51754/softwares/g09e01/l302.exe)
 NPDir=0 NMtPBC=     1 NCelOv=     1 NCel=       1 NClECP=     1 NCelD=      1
         NCelK=      1 NCelE2=     1 NClLst=     1 CellRange=     0.0.
 One-electron integrals computed using PRISM.
 NBasis=   280 RedAO= T EigKep=  2.10D-04  NBF=   190    90
 NBsUse=   280 1.00D-06 EigRej= -1.00D+00 NBFU=   190    90
 Precomputing XC quadrature grid using
 IXCGrd= 4 IRadAn=           0 IRanWt=          -1 IRanGd=           0 AccXCQ= 0.00D+00.
 Generated NRdTot=       0 NPtTot=           0 NUsed=           0 NTot=          32
 NSgBfM=   320   320   320   320   320 MxSgAt=    12 MxSgA2=    12.
 Leave Link  302 at Fri Aug 27 00:08:18 2021, MaxMem= 17179869184 cpu:        43.2
 (Enter /public3/home/sc51754/softwares/g09e01/l303.exe)
 DipDrv:  MaxL=1.
 Leave Link  303 at Fri Aug 27 00:08:18 2021, MaxMem= 17179869184 cpu:        12.0
 (Enter /public3/home/sc51754/softwares/g09e01/l401.exe)
 Initial guess from the checkpoint file:  "HY_BHandHLYP_PC2_OPT_FREQ.chk"
 B after Tr=    -0.000000    0.000000   -0.000000
         Rot=    1.000000   -0.000000    0.000000   -0.000170 Ang=  -0.02 deg.
 Guess basis will be translated and rotated to current coordinates.
 JPrj=2 DoOrth=T DoCkMO=T.
 Initial guess orbital symmetries:
       Occupied  (A') (A') (A') (A') (A') (A') (A') (A') (A') (A')
                 (A') (A') (A') (A') (A') (A') (A') (A") (A') (A')
                 (A') (A") (A') (A") (A")
       Virtual   (A') (A') (A') (A') (A') (A') (A') (A') (A') (A')
                 (A') (A') (A') (A') (A') (A') (A') (A') (A') (A')
                 (A') (A') (A') (A') (A') (A') (A') (A') (A') (A')
                 (A') (A') (A') (A') (A') (A') (A') (A') (A') (A')
                 (A') (A') (A') (A') (A') (A') (A') (A') (A') (A')
                 (A') (A') (A') (A') (A') (A') (A') (A') (A') (A')
                 (A') (A') (A') (A') (A') (A') (A') (A') (A') (A')
                 (A') (A') (A') (A') (A') (A') (A') (A') (A') (A')
                 (A') (A') (A') (A') (A') (A') (A') (A') (A') (A')
                 (A') (A') (A') (A') (A') (A') (A') (A') (A') (A')
                 (A') (A') (A') (A') (A') (A') (A') (A') (A') (A')
                 (A') (A') (A') (A') (A') (A') (A') (A') (A') (A')
                 (A') (A') (A') (A') (A') (A') (A') (A') (A') (A')
                 (A') (A') (A') (A') (A') (A') (A') (A') (A') (A')
                 (A') (A') (A') (A') (A') (A') (A') (A') (A') (A')
                 (A') (A') (A') (A') (A') (A') (A') (A') (A') (A')
                 (A') (A') (A') (A') (A') (A') (A') (A') (A') (A")
                 (A") (A") (A") (A") (A") (A") (A") (A") (A") (A")
                 (A") (A") (A") (A") (A") (A") (A") (A") (A") (A")
                 (A") (A") (A") (A") (A") (A") (A") (A") (A") (A")
                 (A") (A") (A") (A") (A") (A") (A") (A") (A") (A")
                 (A") (A") (A") (A") (A") (A") (A") (A") (A") (A")
                 (A") (A") (A") (A") (A") (A") (A") (A") (A") (A")
                 (A") (A") (A") (A") (A") (A") (A") (A") (A") (A")
                 (A") (A") (A") (A") (A") (A") (A") (A") (A") (A")
                 (A") (A") (A") (A") (A")
 The electronic state of the initial guess is 1-A'.
 Generating alternative initial guess.
 ExpMin= 7.41D-02 ExpMax= 1.48D+04 ExpMxC= 5.05D+02 IAcc=2 IRadAn=         4 AccDes= 0.00D+00
 Harris functional with IExCor=  402 and IRadAn=       4 diagonalized for initial guess.
 HarFok:  IExCor=  402 AccDes= 0.00D+00 IRadAn=         4 IDoV= 1 UseB2=F ITyADJ=14
 ICtDFT=  3500011 ScaDFX=  1.000000  1.000000  1.000000  1.000000
 FoFCou: FMM=F IPFlag=           0 FMFlag=      100000 FMFlg1=           0
         NFxFlg=           0 DoJE=T BraDBF=F KetDBF=T FulRan=T
         wScrn=  0.000000 ICntrl=     500 IOpCl=  0 I1Cent=   200000004 NGrid=           0
         NMat0=    1 NMatS0=      1 NMatT0=    0 NMatD0=    1 NMtDS0=    0 NMtDT0=    0
 Petite list used in FoFCou.
 Harris En= -323.687807693373    
 Leave Link  401 at Fri Aug 27 00:08:20 2021, MaxMem= 17179869184 cpu:        99.4
 (Enter /public3/home/sc51754/softwares/g09e01/l502.exe)
 Closed shell SCF:
 Using DIIS extrapolation, IDIIS=  1040.
 Integral symmetry usage will be decided dynamically.
 Keep R1 ints in memory in symmetry-blocked form, NReq=1167802198.
 IVT=      348658 IEndB=      348658 NGot= 17179869184 MDV= 16785904737
 LenX= 16785904737 LenY= 16785801896
 Requested convergence on RMS density matrix=1.00D-08 within 128 cycles.
 Requested convergence on MAX density matrix=1.00D-06.
 Requested convergence on             energy=1.00D-06.
 No special actions if energy rises.
 FoFCou: FMM=F IPFlag=           0 FMFlag=           0 FMFlg1=           0
         NFxFlg=           0 DoJE=F BraDBF=F KetDBF=F FulRan=T
         wScrn=  0.000000 ICntrl=     600 IOpCl=  0 I1Cent=           0 NGrid=           0
         NMat0=    1 NMatS0=  39340 NMatT0=    0 NMatD0=    1 NMtDS0=    0 NMtDT0=    0
 Petite list used in FoFCou.
 Integral accuracy reduced to 1.0D-05 until final iterations.

 Cycle   1  Pass 0  IDiag  1:
 E= -323.460914267914    
 DIIS: error= 6.15D-04 at cycle   1 NSaved=   1.
 NSaved= 1 IEnMin= 1 EnMin= -323.460914267914     IErMin= 1 ErrMin= 6.15D-04
 ErrMax= 6.15D-04  0.00D+00 EMaxC= 1.00D-01 BMatC= 2.04D-04 BMatP= 2.04D-04
 IDIUse=3 WtCom= 9.94D-01 WtEn= 6.15D-03
 Coeff-Com:  0.100D+01
 Coeff-En:   0.100D+01
 Coeff:      0.100D+01
 Gap=     0.676 Goal=   None    Shift=    0.000
 RMSDP=4.75D-05 MaxDP=1.63D-03              OVMax= 2.36D-03

 Cycle   2  Pass 0  IDiag  1:
 E= -323.461075891170     Delta-E=       -0.000161623256 Rises=F Damp=F
 DIIS: error= 2.15D-04 at cycle   2 NSaved=   2.
 NSaved= 2 IEnMin= 2 EnMin= -323.461075891170     IErMin= 2 ErrMin= 2.15D-04
 ErrMax= 2.15D-04  0.00D+00 EMaxC= 1.00D-01 BMatC= 9.40D-06 BMatP= 2.04D-04
 IDIUse=3 WtCom= 9.98D-01 WtEn= 2.15D-03
 Coeff-Com:  0.562D-01 0.944D+00
 Coeff-En:   0.000D+00 0.100D+01
 Coeff:      0.561D-01 0.944D+00
 Gap=     0.298 Goal=   None    Shift=    0.000
 RMSDP=1.62D-05 MaxDP=7.89D-04 DE=-1.62D-04 OVMax= 9.01D-04

 Cycle   3  Pass 0  IDiag  1:
 E= -323.461082283461     Delta-E=       -0.000006392290 Rises=F Damp=F
 DIIS: error= 1.10D-04 at cycle   3 NSaved=   3.
 NSaved= 3 IEnMin= 3 EnMin= -323.461082283461     IErMin= 3 ErrMin= 1.10D-04
 ErrMax= 1.10D-04  0.00D+00 EMaxC= 1.00D-01 BMatC= 3.22D-06 BMatP= 9.40D-06
 IDIUse=3 WtCom= 9.99D-01 WtEn= 1.10D-03
 Coeff-Com: -0.204D-01 0.350D+00 0.671D+00
 Coeff-En:   0.000D+00 0.462D-01 0.954D+00
 Coeff:     -0.204D-01 0.349D+00 0.671D+00
 Gap=     0.298 Goal=   None    Shift=    0.000
 RMSDP=5.22D-06 MaxDP=1.87D-04 DE=-6.39D-06 OVMax= 3.58D-04

 Initial convergence to 1.0D-05 achieved.  Increase integral accuracy.
 Cycle   4  Pass 1  IDiag  1:
 E= -323.461048154363     Delta-E=        0.000034129098 Rises=F Damp=F
 DIIS: error= 2.57D-05 at cycle   1 NSaved=   1.
 NSaved= 1 IEnMin= 1 EnMin= -323.461048154363     IErMin= 1 ErrMin= 2.57D-05
 ErrMax= 2.57D-05  0.00D+00 EMaxC= 1.00D-01 BMatC= 1.74D-07 BMatP= 1.74D-07
 IDIUse=1 WtCom= 1.00D+00 WtEn= 0.00D+00
 Coeff-Com:  0.100D+01
 Coeff:      0.100D+01
 Gap=     0.298 Goal=   None    Shift=    0.000
 RMSDP=5.22D-06 MaxDP=1.87D-04 DE= 3.41D-05 OVMax= 2.17D-04

 Cycle   5  Pass 1  IDiag  1:
 E= -323.461048249345     Delta-E=       -0.000000094982 Rises=F Damp=F
 DIIS: error= 1.62D-05 at cycle   2 NSaved=   2.
 NSaved= 2 IEnMin= 2 EnMin= -323.461048249345     IErMin= 2 ErrMin= 1.62D-05
 ErrMax= 1.62D-05  0.00D+00 EMaxC= 1.00D-01 BMatC= 1.14D-07 BMatP= 1.74D-07
 IDIUse=1 WtCom= 1.00D+00 WtEn= 0.00D+00
 Coeff-Com:  0.438D+00 0.562D+00
 Coeff:      0.438D+00 0.562D+00
 Gap=     0.298 Goal=   None    Shift=    0.000
 RMSDP=1.04D-06 MaxDP=5.74D-05 DE=-9.50D-08 OVMax= 9.58D-05

 Cycle   6  Pass 1  IDiag  1:
 E= -323.461048337360     Delta-E=       -0.000000088015 Rises=F Damp=F
 DIIS: error= 5.79D-06 at cycle   3 NSaved=   3.
 NSaved= 3 IEnMin= 3 EnMin= -323.461048337360     IErMin= 3 ErrMin= 5.79D-06
 ErrMax= 5.79D-06  0.00D+00 EMaxC= 1.00D-01 BMatC= 7.41D-09 BMatP= 1.14D-07
 IDIUse=1 WtCom= 1.00D+00 WtEn= 0.00D+00
 Coeff-Com:  0.317D-01 0.193D+00 0.776D+00
 Coeff:      0.317D-01 0.193D+00 0.776D+00
 Gap=     0.298 Goal=   None    Shift=    0.000
 RMSDP=3.79D-07 MaxDP=1.87D-05 DE=-8.80D-08 OVMax= 4.31D-05

 Cycle   7  Pass 1  IDiag  1:
 E= -323.461048343362     Delta-E=       -0.000000006002 Rises=F Damp=F
 DIIS: error= 2.64D-06 at cycle   4 NSaved=   4.
 NSaved= 4 IEnMin= 4 EnMin= -323.461048343362     IErMin= 4 ErrMin= 2.64D-06
 ErrMax= 2.64D-06  0.00D+00 EMaxC= 1.00D-01 BMatC= 1.64D-09 BMatP= 7.41D-09
 IDIUse=1 WtCom= 1.00D+00 WtEn= 0.00D+00
 Coeff-Com: -0.310D-01 0.350D-01 0.388D+00 0.608D+00
 Coeff:     -0.310D-01 0.350D-01 0.388D+00 0.608D+00
 Gap=     0.298 Goal=   None    Shift=    0.000
 RMSDP=1.39D-07 MaxDP=4.47D-06 DE=-6.00D-09 OVMax= 1.60D-05

 Cycle   8  Pass 1  IDiag  1:
 E= -323.461048344928     Delta-E=       -0.000000001566 Rises=F Damp=F
 DIIS: error= 7.11D-07 at cycle   5 NSaved=   5.
 NSaved= 5 IEnMin= 5 EnMin= -323.461048344928     IErMin= 5 ErrMin= 7.11D-07
 ErrMax= 7.11D-07  0.00D+00 EMaxC= 1.00D-01 BMatC= 5.28D-11 BMatP= 1.64D-09
 IDIUse=1 WtCom= 1.00D+00 WtEn= 0.00D+00
 Coeff-Com: -0.106D-01-0.358D-02 0.564D-01 0.177D+00 0.781D+00
 Coeff:     -0.106D-01-0.358D-02 0.564D-01 0.177D+00 0.781D+00
 Gap=     0.298 Goal=   None    Shift=    0.000
 RMSDP=3.05D-08 MaxDP=1.15D-06 DE=-1.57D-09 OVMax= 4.01D-06

 Cycle   9  Pass 1  IDiag  1:
 E= -323.461048344985     Delta-E=       -0.000000000057 Rises=F Damp=F
 DIIS: error= 2.28D-07 at cycle   6 NSaved=   6.
 NSaved= 6 IEnMin= 6 EnMin= -323.461048344985     IErMin= 6 ErrMin= 2.28D-07
 ErrMax= 2.28D-07  0.00D+00 EMaxC= 1.00D-01 BMatC= 1.05D-11 BMatP= 5.28D-11
 IDIUse=1 WtCom= 1.00D+00 WtEn= 0.00D+00
 Coeff-Com: -0.305D-04-0.625D-02-0.301D-01-0.158D-01 0.311D+00 0.741D+00
 Coeff:     -0.305D-04-0.625D-02-0.301D-01-0.158D-01 0.311D+00 0.741D+00
 Gap=     0.298 Goal=   None    Shift=    0.000
 RMSDP=1.14D-08 MaxDP=4.87D-07 DE=-5.73D-11 OVMax= 1.46D-06

 Cycle  10  Pass 1  IDiag  1:
 E= -323.461048344994     Delta-E=       -0.000000000009 Rises=F Damp=F
 DIIS: error= 5.87D-08 at cycle   7 NSaved=   7.
 NSaved= 7 IEnMin= 7 EnMin= -323.461048344994     IErMin= 7 ErrMin= 5.87D-08
 ErrMax= 5.87D-08  0.00D+00 EMaxC= 1.00D-01 BMatC= 7.33D-13 BMatP= 1.05D-11
 IDIUse=1 WtCom= 1.00D+00 WtEn= 0.00D+00
 Coeff-Com:  0.126D-02-0.158D-02-0.150D-01-0.258D-01-0.419D-02 0.211D+00
 Coeff-Com:  0.834D+00
 Coeff:      0.126D-02-0.158D-02-0.150D-01-0.258D-01-0.419D-02 0.211D+00
 Coeff:      0.834D+00
 Gap=     0.298 Goal=   None    Shift=    0.000
 RMSDP=4.37D-09 MaxDP=1.67D-07 DE=-9.09D-12 OVMax= 8.12D-07

 SCF Done:  E(RBHandHLYP) =  -323.461048345     A.U. after   10 cycles
            NFock= 10  Conv=0.44D-08     -V/T= 2.0031
 KE= 3.224585706541D+02 PE=-1.312344748791D+03 EE= 3.877241763845D+02
 Leave Link  502 at Fri Aug 27 00:08:25 2021, MaxMem= 17179869184 cpu:       207.1
 (Enter /public3/home/sc51754/softwares/g09e01/l701.exe)
 Compute integral first derivatives.
 ... and contract with generalized density number  0.
 Leave Link  701 at Fri Aug 27 00:08:26 2021, MaxMem= 17179869184 cpu:        55.1
 (Enter /public3/home/sc51754/softwares/g09e01/l702.exe)
 L702 exits ... SP integral derivatives will be done elsewhere.
 Leave Link  702 at Fri Aug 27 00:08:27 2021, MaxMem= 17179869184 cpu:         0.2
 (Enter /public3/home/sc51754/softwares/g09e01/l703.exe)
 Compute integral first derivatives, UseDBF=F ICtDFT=           0.
 Integral derivatives from FoFJK, PRISM(SPDF).
 Calling FoFJK, ICntrl=      2127 FMM=F ISym2X=1 I1Cent= 0 IOpClX= 0 NMat=1 NMatS=1 NMatT=0.
 FoFJK:  IHMeth= 1 ICntrl=    2127 DoSepK=F KAlg= 0 I1Cent=   0 FoldK=F
 IRaf=         0 NMat=   1 IRICut=       1 DoRegI=T DoRafI=F ISym2E= 1.
 FoFCou: FMM=F IPFlag=           0 FMFlag=      100000 FMFlg1=         800
         NFxFlg=           0 DoJE=F BraDBF=F KetDBF=F FulRan=T
         wScrn=  0.000000 ICntrl=    2127 IOpCl=  0 I1Cent=           0 NGrid=           0
         NMat0=    1 NMatS0=      1 NMatT0=    0 NMatD0=    1 NMtDS0=    0 NMtDT0=    0
 Petite list used in FoFCou.
 Leave Link  703 at Fri Aug 27 00:08:29 2021, MaxMem= 17179869184 cpu:       158.6
 (Enter /public3/home/sc51754/softwares/g09e01/l716.exe)
 Dipole        = 1.96440990D-01-5.15301946D-01 1.03361043D-31
 ***** Axes restored to original set *****
 -------------------------------------------------------------------
 Center     Atomic                   Forces (Hartrees/Bohr)
 Number     Number              X              Y              Z
 -------------------------------------------------------------------
      1        8          -0.000044945   -0.000002477   -0.000000000
      2        7           0.001103492   -0.000511156    0.000000000
      3        6          -0.001764283    0.001627838   -0.000000000
      4        6           0.000368411    0.000397850   -0.000000000
      5        6          -0.001032075   -0.000044996   -0.000000000
      6        6           0.000370178   -0.000217511    0.000000000
      7        6          -0.000051527   -0.000361401    0.000000000
      8        1           0.000805793   -0.000259242    0.000000000
[...]
     29  0.000000D+00 -0.847502D-04  0.304265D-03  0.000000D+00 -0.166121D-03
     30  0.848815D-02  0.000000D+00  0.000000D+00 -0.257768D-03  0.000000D+00
     31  0.000000D+00  0.728690D-04 -0.105516D-03  0.000000D+00  0.716393D-03
     32  0.000000D+00 -0.174406D-04 -0.446186D-03  0.000000D+00 -0.556790D-03
     33  0.603717D-02  0.000000D+00  0.000000D+00 -0.388476D-03  0.000000D+00
     34  0.000000D+00 -0.972120D-04 -0.249408D-03  0.000000D+00  0.192498D-03
     35  0.000000D+00  0.882739D-04  0.172683D-03  0.000000D+00  0.264452D-03
     36 -0.360727D-01  0.000000D+00  0.000000D+00 -0.671892D-05  0.000000D+00
               26            27            28            29            30 
     26  0.144822D+00
     27  0.000000D+00  0.262296D-01
     28 -0.377814D-04  0.000000D+00  0.320721D+00
     29  0.127917D-03  0.000000D+00  0.117548D+00  0.124994D+00
     30  0.000000D+00 -0.168781D-02  0.000000D+00  0.000000D+00  0.297705D-01
     31  0.451875D-03  0.000000D+00 -0.988360D-03  0.949825D-03  0.000000D+00
     32  0.135473D-02  0.000000D+00 -0.796597D-03  0.496293D-03  0.000000D+00
     33  0.000000D+00 -0.509589D-02  0.000000D+00  0.000000D+00 -0.584079D-03
     34 -0.142093D-02  0.000000D+00  0.741743D-03 -0.778921D-03  0.000000D+00
     35 -0.431708D-03  0.000000D+00  0.439798D-03  0.597428D-03  0.000000D+00
     36  0.000000D+00  0.513828D-03  0.000000D+00  0.000000D+00 -0.392664D-02
               31            32            33            34            35 
     31  0.293018D+00
     32 -0.140722D+00  0.148178D+00
     33  0.000000D+00  0.000000D+00  0.298356D-01
     34  0.120618D-02  0.858109D-03  0.000000D+00  0.616652D-01
     35 -0.329606D-03  0.723233D-03  0.000000D+00  0.182361D-01  0.382218D+00
     36  0.000000D+00  0.000000D+00 -0.396343D-02  0.000000D+00  0.000000D+00
               36 
     36  0.270274D-01
 FormGI is forming the generalized inverse of G from B-inverse, IUseBI=4.
 Leave Link  716 at Fri Aug 27 00:09:36 2021, MaxMem= 17179869184 cpu:        28.3
 (Enter /public3/home/sc51754/softwares/g09e01/l103.exe)

 GradGradGradGradGradGradGradGradGradGradGradGradGradGradGradGradGradGrad
 Berny optimization.
 Red2BG is reusing G-inverse.
 Internal  Forces:  Max     0.000119055 RMS     0.000028931
 Search for a local minimum.
 Step number   1 out of a maximum of    2
 All quantities printed in internal units (Hartrees-Bohrs-Radians)
 Second derivative matrix not updated -- analytic derivatives used.
 ITU=  0
     Eigenvalues ---    0.01341   0.01722   0.01897   0.02391   0.02529
     Eigenvalues ---    0.02927   0.03328   0.04034   0.04816   0.11037
     Eigenvalues ---    0.11727   0.12831   0.13843   0.16575   0.20182
     Eigenvalues ---    0.21375   0.22884   0.24697   0.32665   0.37436
     Eigenvalues ---    0.37921   0.38388   0.38561   0.41158   0.46893
     Eigenvalues ---    0.48687   0.51611   0.56291   0.56764   0.62615
 Angle between quadratic step and forces=  23.97 degrees.
 Linear search not attempted -- first point.
 Iteration  1 RMS(Cart)=  0.00008575 RMS(Int)=  0.00000001
 Iteration  2 RMS(Cart)=  0.00000001 RMS(Int)=  0.00000000
 ITry= 1 IFail=0 DXMaxC= 2.35D-04 DCOld= 1.00D+10 DXMaxT= 3.00D-01 DXLimC= 3.00D+00 Rises=F
 ClnCor:  largest displacement from symmetrization is 1.68D-12 for atom    10.
 Variable       Old X    -DE/DX   Delta X   Delta X   Delta X     New X
                                 (Linear)    (Quad)   (Total)
    R1        2.52789  -0.00005   0.00000  -0.00008  -0.00008   2.52781
    R2        1.80124   0.00005   0.00000   0.00009   0.00009   1.80133
    R3        2.47384  -0.00008   0.00000  -0.00027  -0.00027   2.47356
    R4        2.50585   0.00005   0.00000   0.00023   0.00023   2.50608
    R5        2.62357   0.00003   0.00000   0.00022   0.00022   2.62379
    R6        2.58984  -0.00009   0.00000  -0.00029  -0.00029   2.58954
    R7        2.02496  -0.00002   0.00000  -0.00006  -0.00006   2.02490
    R8        2.59434  -0.00012   0.00000  -0.00036  -0.00036   2.59398
    R9        2.03156  -0.00002   0.00000  -0.00006  -0.00006   2.03150
   R10        2.61935   0.00002   0.00000   0.00018   0.00018   2.61952
   R11        2.02938  -0.00001   0.00000  -0.00003  -0.00003   2.02935
   R12        2.02558  -0.00002   0.00000  -0.00004  -0.00004   2.02554
    A1        1.87682  -0.00003   0.00000  -0.00014  -0.00014   1.87668
    A2        2.06022  -0.00000   0.00000   0.00000   0.00000   2.06023
    A3        2.05330   0.00004   0.00000   0.00020   0.00020   2.05351
    A4        2.06946  -0.00003   0.00000  -0.00021  -0.00021   2.06925
    A5        2.16042  -0.00000   0.00000   0.00001   0.00001   2.16043
    A6        2.04932  -0.00001   0.00000  -0.00007  -0.00007   2.04925
    A7        2.09442   0.00001   0.00000  -0.00002  -0.00002   2.09440
    A8        2.13944   0.00001   0.00000   0.00009   0.00009   2.13953
    A9        2.15206   0.00000   0.00000  -0.00000  -0.00000   2.15206
   A10        2.02383   0.00000   0.00000  -0.00006  -0.00006   2.02377
   A11        2.10730  -0.00000   0.00000   0.00006   0.00006   2.10736
   A12        2.08802   0.00002   0.00000   0.00008   0.00008   2.08810
   A13        2.09348  -0.00001   0.00000   0.00004   0.00004   2.09353
   A14        2.10168  -0.00001   0.00000  -0.00012  -0.00012   2.10156
   A15        2.05632  -0.00001   0.00000  -0.00002  -0.00002   2.05629
   A16        2.10554   0.00001   0.00000   0.00010   0.00010   2.10564
   A17        2.12133   0.00000   0.00000  -0.00008  -0.00008   2.12125
    D1       -0.00000  -0.00000   0.00000   0.00000   0.00000   0.00000
    D2        3.14159  -0.00000   0.00000   0.00000   0.00000   3.14159
    D3        3.14159  -0.00000   0.00000   0.00000   0.00000   3.14159
    D4       -0.00000   0.00000   0.00000   0.00000   0.00000   0.00000
    D5        0.00000  -0.00000   0.00000   0.00000   0.00000   0.00000
    D6        3.14159  -0.00000   0.00000   0.00000   0.00000   3.14159
    D7        3.14159   0.00000   0.00000  -0.00000   0.00000   3.14159
    D8       -0.00000   0.00000   0.00000  -0.00000   0.00000   0.00000
    D9       -0.00000  -0.00000   0.00000  -0.00000   0.00000   0.00000
   D10        3.14159  -0.00000   0.00000  -0.00000   0.00000   3.14159
   D11        0.00000   0.00000   0.00000  -0.00000  -0.00000   0.00000
   D12        3.14159   0.00000   0.00000   0.00000   0.00000   3.14159
   D13        3.14159  -0.00000   0.00000   0.00000   0.00000   3.14159
   D14        0.00000   0.00000   0.00000   0.00000   0.00000   0.00000
   D15       -0.00000  -0.00000   0.00000  -0.00000   0.00000   0.00000
   D16        3.14159  -0.00000   0.00000  -0.00000   0.00000   3.14159
   D17        3.14159  -0.00000   0.00000  -0.00000   0.00000   3.14159
   D18        0.00000   0.00000   0.00000  -0.00000  -0.00000   0.00000
   D19       -0.00000   0.00000   0.00000   0.00000   0.00000   0.00000
   D20        3.14159   0.00000   0.00000   0.00000   0.00000   3.14159
   D21        3.14159   0.00000   0.00000   0.00000   0.00000   3.14159
   D22       -0.00000   0.00000   0.00000  -0.00000   0.00000   0.00000
         Item               Value     Threshold  Converged?
 Maximum Force            0.000119     0.000450     YES
 RMS     Force            0.000029     0.000300     YES
 Maximum Displacement     0.000235     0.001800     YES
 RMS     Displacement     0.000086     0.001200     YES
 Predicted change in Energy=-7.363849D-08
 Optimization completed.
    -- Stationary point found.
                           ----------------------------
                           !   Optimized Parameters   !
                           ! (Angstroms and Degrees)  !
 --------------------------                            --------------------------
 ! Name  Definition              Value          Derivative Info.                !
 --------------------------------------------------------------------------------
 ! R1    R(1,3)                  1.3377         -DE/DX =   -0.0001              !
 ! R2    R(1,8)                  0.9532         -DE/DX =    0.0                 !
 ! R3    R(2,3)                  1.3091         -DE/DX =   -0.0001              !
 ! R4    R(2,5)                  1.326          -DE/DX =    0.0                 !
 ! R5    R(3,4)                  1.3883         -DE/DX =    0.0                 !
 ! R6    R(4,6)                  1.3705         -DE/DX =   -0.0001              !
 ! R7    R(4,9)                  1.0716         -DE/DX =    0.0                 !
 ! R8    R(5,7)                  1.3729         -DE/DX =   -0.0001              !
 ! R9    R(5,10)                 1.0751         -DE/DX =    0.0                 !
 ! R10   R(6,7)                  1.3861         -DE/DX =    0.0                 !
 ! R11   R(6,11)                 1.0739         -DE/DX =    0.0                 !
 ! R12   R(7,12)                 1.0719         -DE/DX =    0.0                 !
 ! A1    A(3,1,8)              107.5336         -DE/DX =    0.0                 !
 ! A2    A(3,2,5)              118.0421         -DE/DX =    0.0                 !
 ! A3    A(1,3,2)              117.6456         -DE/DX =    0.0                 !
 ! A4    A(1,3,4)              118.5712         -DE/DX =    0.0                 !
 ! A5    A(2,3,4)              123.7832         -DE/DX =    0.0                 !
 ! A6    A(3,4,6)              117.4176         -DE/DX =    0.0                 !
 ! A7    A(3,4,9)              120.0013         -DE/DX =    0.0                 !
 ! A8    A(6,4,9)              122.5812         -DE/DX =    0.0                 !
 ! A9    A(2,5,7)              123.304          -DE/DX =    0.0                 !
 ! A10   A(2,5,10)             115.9566         -DE/DX =    0.0                 !
 ! A11   A(7,5,10)             120.7394         -DE/DX =    0.0                 !
 ! A12   A(4,6,7)              119.6349         -DE/DX =    0.0                 !
 ! A13   A(4,6,11)             119.9478         -DE/DX =    0.0                 !
 ! A14   A(7,6,11)             120.4172         -DE/DX =    0.0                 !
 ! A15   A(5,7,6)              117.8182         -DE/DX =    0.0                 !
 ! A16   A(5,7,12)             120.6386         -DE/DX =    0.0                 !
 ! A17   A(6,7,12)             121.5432         -DE/DX =    0.0                 !
 ! D1    D(8,1,3,2)              0.0            -DE/DX =    0.0                 !
 ! D2    D(8,1,3,4)            180.0            -DE/DX =    0.0                 !
 ! D3    D(5,2,3,1)            180.0            -DE/DX =    0.0                 !
 ! D4    D(5,2,3,4)              0.0            -DE/DX =    0.0                 !
 ! D5    D(3,2,5,7)              0.0            -DE/DX =    0.0                 !
 ! D6    D(3,2,5,10)           180.0            -DE/DX =    0.0                 !
 ! D7    D(1,3,4,6)            180.0            -DE/DX =    0.0                 !
 ! D8    D(1,3,4,9)              0.0            -DE/DX =    0.0                 !
 ! D9    D(2,3,4,6)              0.0            -DE/DX =    0.0                 !
 ! D10   D(2,3,4,9)            180.0            -DE/DX =    0.0                 !
 ! D11   D(3,4,6,7)              0.0            -DE/DX =    0.0                 !
 ! D12   D(3,4,6,11)           180.0            -DE/DX =    0.0                 !
 ! D13   D(9,4,6,7)            180.0            -DE/DX =    0.0                 !
 ! D14   D(9,4,6,11)             0.0            -DE/DX =    0.0                 !
 ! D15   D(2,5,7,6)              0.0            -DE/DX =    0.0                 !
 ! D16   D(2,5,7,12)           180.0            -DE/DX =    0.0                 !
 ! D17   D(10,5,7,6)           180.0            -DE/DX =    0.0                 !
 ! D18   D(10,5,7,12)            0.0            -DE/DX =    0.0                 !
 ! D19   D(4,6,7,5)              0.0            -DE/DX =    0.0                 !
 ! D20   D(4,6,7,12)           180.0            -DE/DX =    0.0                 !
 ! D21   D(11,6,7,5)           180.0            -DE/DX =    0.0                 !
 ! D22   D(11,6,7,12)            0.0            -DE/DX =    0.0                 !
 --------------------------------------------------------------------------------
 GradGradGradGradGradGradGradGradGradGradGradGradGradGradGradGradGradGrad

 Leave Link  103 at Fri Aug 27 00:09:37 2021, MaxMem= 17179869184 cpu:        53.5
 (Enter /public3/home/sc51754/softwares/g09e01/l9999.exe)
 1\1\GINC-R2613\Freq\RBHandHLYP\Gen\C5H5N1O1\SC51754\27-Aug-2021\0\\#P 
 Geom=AllCheck Guess=TCheck SCRF=Check GenChk RBHandHLYP/ChkBas Freq\\H
 Y_BHandHLYP_PC2_OPT_FREQ\\0,1\O,0.0035374136,2.2298045086,0.\N,-1.1644
 820703,0.2896956886,0.\C,-0.002229579,0.892112837,0.\C,1.214163322,0.2
 228911393,0.\C,-1.1793755371,-1.0362605013,0.\C,1.1806634981,-1.147181
 2476,0.\C,-0.04051801,-1.8029131772,0.\H,-0.9041058484,2.5208785898,0.
 \H,2.1309276161,0.7776766041,0.\H,-2.1512084698,-1.4959157998,0.\H,2.0
 977967119,-1.7058710885,0.\H,-0.1023880474,-2.8730175529,0.\\Version=E
 M64L-G09RevE.01\State=1-A'\HF=-323.4610593\RMSD=2.472e-09\RMSF=5.398e-
 05\ZeroPoint=0.0969981\Thermal=0.1020259\Dipole=0.1954059,-0.5094061,0
 .\DipoleDeriv=-0.2554123,0.1461567,0.,0.1079825,-1.676913,0.,0.,0.,-0.
 3985187,-0.4973089,-0.2506451,0.,0.2074562,-0.8314387,0.,0.,0.,-0.2985
 706,0.2977802,-0.2577003,0.,-0.0733433,1.8828501,0.,0.,0.,0.2370652,-0
 .0377321,0.4314765,0.,-0.0662598,-0.5321014,0.,0.,0.,-0.1689688,0.4888
 545,0.1361717,0.,-0.2734884,0.3824905,0.,0.,0.,0.0025439,0.3224681,0.0
 86652,0.,0.1516707,0.3950468,0.,0.,0.,-0.0832475,-0.5408387,-0.1510695
 ,0.,0.0878764,-0.0714059,0.,0.,0.,-0.1763296,0.2323112,-0.0551877,0.,-
 0.0846038,0.410919,0.,0.,0.,0.3314118,-0.0027225,-0.0549886,0.,-0.0501
 369,0.0482702,0.,0.,0.,0.1592316,-0.0484489,-0.0878254,0.,-0.0587467,0
 .0191169,0.,0.,0.,0.1081597,-0.0287618,0.0699137,0.,0.0677936,0.044842
 9,0.,0.,0.,0.1270543,0.0698111,-0.0129541,0.,-0.0162004,-0.0716774,0.,
 0.,0.,0.1601686\Polar=71.04232,0.3741776,80.4093639,0.,0.,37.4391342\P
 G=CS [SG(C5H5N1O1)]\NImag=0\\0.63708777,-0.12332598,0.52063198,0.,0.,0
 .03816609,-0.00730905,-0.03512985,0.,0.52118927,-0.07266897,-0.0574124
 0,0.,0.12994397,0.67738525,0.,0.,0.00763999,0.,0.,0.09990201,-0.119603
 25,-0.01719570,0.,-0.33278394,-0.04598587,0.,0.76334194,0.03543666,-0.
 32937386,0.,-0.09879262,-0.19116126,0.,-0.01387331,0.78629320,0.,0.,-0
 .05698766,0.,0.,-0.08012541,0.,0.,0.20566943,0.00071171,0.01665179,0.,
 -0.07177294,-0.04196732,0.,-0.28124013,0.10572056,0.,0.76311023,0.0558
 7116,-0.04784457,0.,0.02540536,0.07944140,0.,0.01950523,-0.16486986,0.
 ,0.06095824,0.77353247,0.,0.,0.01049199,0.,0.,0.02246128,0.,0.,-0.0845
 2585,0.,0.,0.13587466,-0.00652665,0.00329719,0.,-0.13506539,-0.0191555
 5,0.,0.02955456,-0.05305941,0.,-0.02227965,0.03196238,0.,0.80829607,0.
 01075511,0.00124239,0.,0.02131424,-0.36658696,0.,-0.12902136,-0.048342
 52,0.,0.04555118,-0.06855210,0.,0.03924899,0.72485202,0.,0.,0.01135784
 ,0.,0.,-0.07154025,0.,0.,-0.00306332,0.,0.,-0.00595928,0.,0.,0.1773085
 9,-0.01265565,0.00468070,0.,-0.02615420,-0.04843008,0.,0.06118260,0.03
 346394,0.,-0.14894762,0.03026304,0.,-0.06700030,0.03994870,0.,0.764571
 35,-0.00754954,0.01005434,0.,-0.04242643,-0.06890905,0.,0.10196988,-0.
 03429663,0.,-0.04332015,-0.38772353,0.,-0.02389926,0.08682144,0.,-0.04
 673565,0.74868486,0.,0.,0.00499670,0.,0.,-0.00838866,0.,0.,0.00315838,
 0.,0.,-0.06549981,0.,0.,0.00892372,0.,0.,0.16057852,0.01039683,-0.0066
 9149,0.,0.05618139,0.10040904,0.,-0.10387529,0.00119401,0.,0.04402023,
 -0.08759217,0.,-0.30281056,0.05099113,0.,-0.29858105,-0.04380364,0.,0.
 69506401,-0.00219425,-0.00807883,0.,0.02317740,-0.05370781,0.,0.015681
 62,0.00607576,0.,-0.03639169,-0.02367021,0.,0.13386706,-0.20636879,0.,
 -0.12025826,-0.18883329,0.,-0.00118779,0.81455816,0.,0.,-0.00144222,0.
 ,0.,0.02472573,0.,0.,-0.00961011,0.,0.,0.00856323,0.,0.,-0.07648775,0.
 ,0.,-0.07066774,0.,0.,0.13679041,-0.50470274,0.15809025,0.,-0.00097109
 ,-0.00423013,0.,-0.00119038,0.01030073,0.,0.00287515,-0.00285508,0.,-0
 .00050166,-0.00140528,0.,0.00032412,0.00127461,0.,-0.00108870,-0.00062
 431,0.,0.50517471,0.10383566,-0.08815199,0.,0.00201812,0.00838781,0.,0
 .05665598,-0.02820001,0.,-0.00244315,-0.00720686,0.,-0.00067248,-0.002
 19400,0.,0.00256105,0.00067153,0.,-0.00145567,0.00111003,0.,-0.1602841
 1,0.11536938,0.,0.,-0.01049553,0.,0.,-0.00335768,0.,0.,0.00106793,0.,0
 .,0.00321547,0.,0.,-0.00069987,0.,0.,0.00149179,0.,0.,0.00051071,0.,0.
 ,0.00957798,0.00195104,-0.00033977,0.,-0.00584659,0.00319599,0.,-0.017
 77658,-0.02052727,0.,-0.28720883,-0.13033293,0.,0.00046768,0.00229463,
 0.,0.00604630,0.00185840,0.,0.00227360,0.00088802,0.,0.00007147,-0.000
 01688,0.,0.29915871,-0.00066363,0.00097132,0.,0.00563232,-0.00028759,0
 .,0.01358404,0.01293580,0.,-0.13246750,-0.14240634,0.,0.00042606,-0.00
 161474,0.,-0.03015348,-0.01017074,0.,0.00146353,-0.00548417,0.,-0.0002
 5277,0.00018333,0.,0.14343827,0.14482218,0.,0.,-0.00221420,0.,0.,0.006
 17935,0.,0.,0.00242938,0.,0.,-0.03720120,0.,0.,-0.00023325,0.,0.,0.002
 57290,0.,0.,0.00916516,0.,0.,-0.00065784,0.,0.,0.02622957,-0.00014607,
 -0.00032336,0.,0.00627296,-0.00515741,0.,0.00338204,0.00188022,0.,0.00
 039827,0.00089543,0.,-0.30883279,-0.10441512,0.,-0.00357995,0.00418533
 ,0.,-0.01795639,-0.01437530,0.,0.00003344,0.00015640,0.,-0.00004569,-0
 .00003778,0.,0.32072079,-0.00118061,-0.00121433,0.,-0.03398386,-0.0255
 2248,0.,-0.00049610,-0.00451438,0.,0.00006208,-0.00066144,0.,-0.102354
 36,-0.10565590,0.,0.00357372,-0.00176465,0.,0.01691072,0.01281362,0.,-
 0.00008475,0.00030426,0.,-0.00016612,0.00012792,0.,0.11754838,0.124993
 66,0.,0.,0.00033566,0.,0.,-0.00308151,0.,0.,0.01101397,0.,0.,-0.000620
 28,0.,0.,-0.04761727,0.,0.,0.00816709,0.,0.,0.00848815,0.,0.,-0.000257
 77,0.,0.,-0.00168781,0.,0.,0.02977049,0.00003056,0.00021352,0.,0.00046
 013,-0.00071977,0.,0.00199817,-0.00147410,0.,0.00535451,-0.00197820,0.
 ,-0.00434724,-0.00423833,0.,-0.27941856,0.12977959,0.,-0.01810247,0.01
 817229,0.,0.00007287,-0.00010552,0.,0.00071639,0.00045187,0.,-0.000988
 36,0.00094982,0.,0.29301782,0.00187309,-0.00084212,0.,-0.00061893,-0.0
 0078402,0.,-0.00136260,-0.00554589,0.,0.03031924,-0.01100433,0.,-0.003
 86236,-0.00073531,0.,0.12911707,-0.14520987,0.,-0.01423122,0.01381594,
 0.,-0.00001744,-0.00044619,0.,-0.00055679,0.00135473,0.,-0.00079660,0.
 00049629,0.,-0.14072158,0.14817753,0.,0.,-0.00044574,0.,0.,-0.00316058
 ,0.,0.,0.01048724,0.,0.,0.00628139,0.,0.,0.00795634,0.,0.,-0.04695951,
 0.,0.,0.00603717,0.,0.,-0.00038848,0.,0.,-0.00509589,0.,0.,-0.00058408
 ,0.,0.,0.02983557,0.00076549,0.00007269,0.,-0.00420056,0.00476609,0.,-
 0.00298974,-0.00026941,0.,-0.00502093,-0.00210247,0.,0.00904594,0.0289
 7612,0.,0.00421296,-0.03133314,0.,-0.06552159,-0.01675479,0.,-0.000097
 21,-0.00024941,0.,0.00019250,-0.00142093,0.,0.00074174,-0.00077892,0.,
 0.00120618,0.00085811,0.,0.06166522,-0.00018869,0.00001808,0.,0.003460
 27,-0.00084289,0.,0.00053818,0.00099966,0.,-0.00267327,0.00096538,0.,-
 0.00579827,-0.01286553,0.,0.00196925,-0.00932441,0.,-0.01600645,-0.362
 23039,0.,0.00008827,0.00017268,0.,0.00026445,-0.00043171,0.,0.00043980
 ,0.00059743,0.,-0.00032961,0.00072323,0.,0.01823606,0.38221846,0.,0.,-
 0.00140291,0.,0.,0.00874572,0.,0.,0.00048602,0.,0.,0.00691840,0.,0.,0.
 00005449,0.,0.,0.00162661,0.,0.,-0.03607273,0.,0.,-0.00000672,0.,0.,0.
 00051383,0.,0.,-0.00392664,0.,0.,-0.00396343,0.,0.,0.02702737\\-0.0000
 9333,0.00004596,0.,-0.00007836,-0.00007098,0.,0.00015099,-0.00002291,0
 .,-0.00006834,0.00007708,0.,-0.00008346,0.00011081,0.,-0.00000520,-0.0
 0010833,0.,0.00011840,-0.00001967,0.,0.00004600,0.00000308,0.,0.000017
 41,0.00001228,0.,-0.00001875,-0.00000907,0.,0.00001650,-0.00000201,0.,
 -0.00000187,-0.00001625,0.\\\@


 HONESTY IN A LAWYER IS LIKE A HEN'S HIND LEGS.
  -- MAGNUS OLESON, LAKE WOBEGON PATRIARCH, C.1875
 Job cpu time:       0 days  0 hours 37 minutes 27.3 seconds.
 File lengths (MBytes):  RWF=     80 Int=      0 D2E=      0 Chk=      7 Scr=      1
 Normal termination of Gaussian 09 at Fri Aug 27 00:09:37 2021.
