 Entering Gaussian System, Link 0=g09
 AtFile(1): pc-2.gbs
            -H     0
            S    4   1.00
                  0.754230D+02           0.240650D-02
                  0.113500D+02           0.184870D-01
                  0.259930D+01           0.897420D-01
                  0.735130D+00           0.281110D+00
            S    1   1.00
                  0.231670D+00           0.100000D+01
            S    1   1.00
                  0.741470D-01           0.100000D+01
            P    1   1.00
                  0.160000D+01           0.100000D+01
            P    1   1.00
                  0.450000D+00           0.100000D+01
            D    1   1.00
                  0.125000D+01           0.100000D+01
            ****
            -C     0
            S    7   1.00
                  0.785710D+04           0.568250D-03
                  0.117870D+04           0.439150D-02
                  0.268320D+03           0.225040D-01
                  0.759480D+02           0.866530D-01
                  0.245590D+02           0.244050D+00
                  0.862120D+01           0.441480D+00
                  0.312780D+01           0.353320D+00
            S    7   1.00
                  0.117870D+04          -0.594920D-06
                  0.268320D+03          -0.627480D-04
                  0.759480D+02          -0.757730D-03
                  0.245590D+02          -0.733080D-02
                  0.862120D+01          -0.389320D-01
                  0.312780D+01          -0.889080D-01
                  0.822020D+00           0.216890D+00
            S    1   1.00
                  0.330170D+00           0.100000D+01
            S    1   1.00
                  0.114630D+00           0.100000D+01
            P    4   1.00
                  0.337750D+02           0.602940D-02
                  0.767660D+01           0.432280D-01
                  0.223570D+01           0.163010D+00
                  0.764470D+00           0.365040D+00
            P    1   1.00
                  0.262320D+00           0.100000D+01
            P    1   1.00
                  0.846380D-01           0.100000D+01
            D    1   1.00
                  0.140000D+01           0.100000D+01
            D    1   1.00
                  0.450000D+00           0.100000D+01
            F    1   1.00
                  0.950000D+00           0.100000D+01
            ****
            -N     0
            S    7   1.00
                  0.111010D+05           0.545700D-03
                  0.166530D+04           0.421810D-02
                  0.379080D+03           0.216450D-01
                  0.107300D+03           0.837760D-01
                  0.347470D+02           0.238810D+00
                  0.122490D+02           0.439940D+00
                  0.447430D+01           0.363640D+00
            S    7   1.00
                  0.166530D+04          -0.150060D-05
                  0.379080D+03          -0.587530D-04
                  0.107300D+03          -0.774530D-03
                  0.347470D+02          -0.721610D-02
                  0.122490D+02          -0.393380D-01
                  0.447430D+01          -0.906110D-01
                  0.124040D+01           0.198820D+00
            S    1   1.00
                  0.487430D+00           0.100000D+01
            S    1   1.00
                  0.164840D+00           0.100000D+01
            P    4   1.00
                  0.479340D+02           0.617060D-02
                  0.109990D+02           0.442600D-01
                  0.324720D+01           0.168250D+00
                  0.111140D+01           0.368480D+00
            P    1   1.00
                  0.379880D+00           0.100000D+01
            P    1   1.00
                  0.120680D+00           0.100000D+01
            D    1   1.00
                  0.180000D+01           0.100000D+01
            D    1   1.00
                  0.550000D+00           0.100000D+01
            F    1   1.00
                  0.102000D+01           0.100000D+01
            ****
            -O     0
            S    7   1.00
                  0.147820D+05           0.535190D-03
                  0.221730D+04           0.413750D-02
                  0.504740D+03           0.212450D-01
                  0.142870D+03           0.824530D-01
                  0.463000D+02           0.236710D+00
                  0.163370D+02           0.440390D+00
                  0.598280D+01           0.364650D+00
            S    7   1.00
                  0.221730D+04          -0.192750D-05
                  0.504740D+03          -0.579640D-04
                  0.142870D+03          -0.794940D-03
                  0.463000D+02          -0.731250D-02
                  0.163370D+02          -0.405740D-01
                  0.598280D+01          -0.915940D-01
                  0.167180D+01           0.209400D+00
            S    1   1.00
                  0.646620D+00           0.100000D+01
            S    1   1.00
                  0.216690D+00           0.100000D+01
            P    4   1.00
                  0.604240D+02           0.689490D-02
                  0.139350D+02           0.490050D-01
                  0.415310D+01           0.182550D+00
                  0.141580D+01           0.376330D+00
            P    1   1.00
                  0.475490D+00           0.100000D+01
            P    1   1.00
                  0.145290D+00           0.100000D+01
            D    1   1.00
                  0.220000D+01           0.100000D+01
            D    1   1.00
                  0.650000D+00           0.100000D+01
            F    1   1.00
                  0.110000D+01           0.100000D+01
            ****
 Initial command:
 /public3/home/sc51754/softwares/g09e01/l1.exe "./Gau-44013.inp" -scrdir="./"
 Entering Link 1 = /public3/home/sc51754/softwares/g09e01/l1.exe PID=     44014.
  
 Copyright (c) 1988,1990,1992,1993,1995,1998,2003,2009,2015,
            Gaussian, Inc.  All Rights Reserved.
  
 This is part of the Gaussian(R) 09 program.  It is based on
 the Gaussian(R) 03 system (copyright 2003, Gaussian, Inc.),
 the Gaussian(R) 98 system (copyright 1998, Gaussian, Inc.),
 the Gaussian(R) 94 system (copyright 1995, Gaussian, Inc.),
 the Gaussian 92(TM) system (copyright 1992, Gaussian, Inc.),
 the Gaussian 90(TM) system (copyright 1990, Gaussian, Inc.),
 the Gaussian 88(TM) system (copyright 1988, Gaussian, Inc.),
 the Gaussian 86(TM) system (copyright 1986, Carnegie Mellon
 University), and the Gaussian 82(TM) system (copyright 1983,
 Carnegie Mellon University). Gaussian is a federally registered
 trademark of Gaussian, Inc.
  
 This software contains proprietary and confidential information,
 including trade secrets, belonging to Gaussian, Inc.
  
 This software is provided under written license and may be
 used, copied, transmitted, or stored only in accord with that
 written license.
  
 The following legend is applicable only to US Government
 contracts under FAR:
  
                    RESTRICTED RIGHTS LEGEND
  
 Use, reproduction and disclosure by the US Government is
 subject to restrictions as set forth in subparagraphs (a)
 and (c) of the Commercial Computer Software - Restricted
 Rights clause in FAR 52.227-19.
  
 Gaussian, Inc.
 340 Quinnipiac St., Bldg. 40, Wallingford CT 06492
  
  
 ---------------------------------------------------------------
 Warning -- This program may not be used in any manner that
 competes with the business of Gaussian, Inc. or will provide
 assistance to any competitor of Gaussian, Inc.  The licensee
 of this program is prohibited from giving any competitor of
 Gaussian, Inc. access to this program.  By using this program,
 the user acknowledges that Gaussian, Inc. is engaged in the
 business of creating and licensing software in the field of
 computational chemistry and represents and warrants to the
 licensee that it is not a competitor of Gaussian, Inc. and that
 it will not use this program in any manner prohibited above.
 ---------------------------------------------------------------
  

 Cite this work as:
 Gaussian 09, Revision E.01,
 M. J. Frisch, G. W. Trucks, H. B. Schlegel, G. E. Scuseria, 
 M. A. Robb, J. R. Cheeseman, G. Scalmani, V. Barone, B. Mennucci, 
 G. A. Petersson, H. Nakatsuji, M. Caricato, X. Li, H. P. Hratchian, 
 A. F. Izmaylov, J. Bloino, G. Zheng, J. L. Sonnenberg, M. Hada, 
 M. Ehara, K. Toyota, R. Fukuda, J. Hasegawa, M. Ishida, T. Nakajima, 
 Y. Honda, O. Kitao, H. Nakai, T. Vreven, J. A. Montgomery, Jr., 
 J. E. Peralta, F. Ogliaro, M. Bearpark, J. J. Heyd, E. Brothers, 
 K. N. Kudin, V. N. Staroverov, T. Keith, R. Kobayashi, J. Normand, 
 K. Raghavachari, A. Rendell, J. C. Burant, S. S. Iyengar, J. Tomasi, 
 M. Cossi, N. Rega, J. M. Millam, M. Klene, J. E. Knox, J. B. Cross, 
 V. Bakken, C. Adamo, J. Jaramillo, R. Gomperts, R. E. Stratmann, 
 O. Yazyev, A. J. Austin, R. Cammi, C. Pomelli, J. W. Ochterski, 
 R. L. Martin, K. Morokuma, V. G. Zakrzewski, G. A. Voth, 
 P. Salvador, J. J. Dannenberg, S. Dapprich, A. D. Daniels, 
 O. Farkas, J. B. Foresman, J. V. Ortiz, J. Cioslowski, 
 and D. J. Fox, Gaussian, Inc., Wallingford CT, 2013.
 
 ******************************************
 Gaussian 09:  EM64L-G09RevE.01 30-Nov-2015
                27-Aug-2021 
 ******************************************
 %nprocshared=64
 Will use up to   64 processors via shared memory.
 %mem=128GB
 %chk=PY_BHandHLYP_PC2_OPT_FREQ.chk
 -------------------------
 #p opt freq BHandHLYP/gen
 -------------------------
 1/14=-1,18=20,19=15,26=3,38=1/1,3;
 2/9=110,12=2,17=6,18=5,40=1/2;
 3/5=7,11=2,16=1,25=1,30=1,71=1,74=-3/1,2,3;
 4//1;
 5/5=2,38=5/2;
 6/7=2,8=2,9=2,10=2,28=1/1;
 7//1,2,3,16;
 1/14=-1,18=20,19=15,26=3/3(2);
 2/9=110/2;
 99//99;
 2/9=110/2;
 3/5=7,6=1,11=2,16=1,25=1,30=1,71=1,74=-3,82=7/1,2,3;
 4/5=5,16=3,69=1/1;
 5/5=2,38=5/2;
 7//1,2,3,16;
 1/14=-1,18=20,19=15,26=3/3(-5);
 2/9=110/2;
 6/7=2,8=2,9=2,10=2,19=2,28=1/1;
 99/9=1/99;
 Leave Link    1 at Fri Aug 27 00:08:20 2021, MaxMem= 17179869184 cpu:         2.6
 (Enter /public3/home/sc51754/softwares/g09e01/l101.exe)
 -------------------------
 PY_BHandHLYP_PC2_OPT_FREQ
 -------------------------
 Symbolic Z-matrix:
 Charge =  0 Multiplicity = 1
 O                    -0.1303    2.2679    0. 
 N                    -1.13214   0.23327   0. 
 C                     0.        1.06201   0. 
 C                     1.23795   0.32011   0. 
 C                    -1.11441  -1.12189   0. 
 C                     1.25607  -1.03234   0. 
 C                     0.05856  -1.79159   0. 
 H                    -2.00762   0.73274   0. 
 H                     2.14422   0.90837   0. 
 H                    -2.07697  -1.61403   0. 
 H                     2.20675  -1.5513    0. 
 H                     0.072    -2.86964   0. 
 
 NAtoms=     12 NQM=       12 NQMF=       0 NMMI=      0 NMMIF=      0
                NMic=       0 NMicF=      0.
                    Isotopes and Nuclear Properties:
 (Nuclear quadrupole moments (NQMom) in fm**2, nuclear magnetic moments (NMagM)
  in nuclear magnetons)

  Atom         1           2           3           4           5           6           7           8           9          10
 IAtWgt=          16          14          12          12          12          12          12           1           1           1
 AtmWgt=  15.9949146  14.0030740  12.0000000  12.0000000  12.0000000  12.0000000  12.0000000   1.0078250   1.0078250   1.0078250
 NucSpn=           0           2           0           0           0           0           0           1           1           1
 AtZEff=   0.0000000   0.0000000   0.0000000   0.0000000   0.0000000   0.0000000   0.0000000   0.0000000   0.0000000   0.0000000
 NQMom=    0.0000000   2.0440000   0.0000000   0.0000000   0.0000000   0.0000000   0.0000000   0.0000000   0.0000000   0.0000000
 NMagM=    0.0000000   0.4037610   0.0000000   0.0000000   0.0000000   0.0000000   0.0000000   2.7928460   2.7928460   2.7928460
 AtZNuc=   8.0000000   7.0000000   6.0000000   6.0000000   6.0000000   6.0000000   6.0000000   1.0000000   1.0000000   1.0000000

  Atom        11          12
 IAtWgt=           1           1
 AtmWgt=   1.0078250   1.0078250
 NucSpn=           1           1
 AtZEff=   0.0000000   0.0000000
 NQMom=    0.0000000   0.0000000
 NMagM=    2.7928460   2.7928460
 AtZNuc=   1.0000000   1.0000000
 Leave Link  101 at Fri Aug 27 00:08:20 2021, MaxMem= 17179869184 cpu:         6.7
 (Enter /public3/home/sc51754/softwares/g09e01/l103.exe)

 GradGradGradGradGradGradGradGradGradGradGradGradGradGradGradGradGradGrad
 Berny optimization.
 Initialization pass.
                           ----------------------------
                           !    Initial Parameters    !
                           ! (Angstroms and Degrees)  !
 --------------------------                            --------------------------
 ! Name  Definition              Value          Derivative Info.                !
 --------------------------------------------------------------------------------
 ! R1    R(1,3)                  1.2129         estimate D2E/DX2                !
 ! R2    R(2,3)                  1.403          estimate D2E/DX2                !
 ! R3    R(2,5)                  1.3553         estimate D2E/DX2                !
 ! R4    R(2,8)                  1.0079         estimate D2E/DX2                !
 ! R5    R(3,4)                  1.4432         estimate D2E/DX2                !
 ! R6    R(4,6)                  1.3526         estimate D2E/DX2                !
 ! R7    R(4,9)                  1.0805         estimate D2E/DX2                !
 ! R8    R(5,7)                  1.3507         estimate D2E/DX2                !
 ! R9    R(5,10)                 1.0811         estimate D2E/DX2                !
 ! R10   R(6,7)                  1.4179         estimate D2E/DX2                !
 ! R11   R(6,11)                 1.0831         estimate D2E/DX2                !
 ! R12   R(7,12)                 1.0781         estimate D2E/DX2                !
 ! A1    A(3,2,5)              125.4546         estimate D2E/DX2                !
 ! A2    A(3,2,8)              114.0905         estimate D2E/DX2                !
 ! A3    A(5,2,8)              120.4549         estimate D2E/DX2                !
 ! A4    A(1,3,2)              120.0371         estimate D2E/DX2                !
 ! A5    A(1,3,4)              127.1013         estimate D2E/DX2                !
 ! A6    A(2,3,4)              112.8616         estimate D2E/DX2                !
 ! A7    A(3,4,6)              121.7019         estimate D2E/DX2                !
 ! A8    A(3,4,9)              116.0785         estimate D2E/DX2                !
 ! A9    A(6,4,9)              122.2196         estimate D2E/DX2                !
 ! A10   A(2,5,7)              120.4739         estimate D2E/DX2                !
 ! A11   A(2,5,10)             116.3305         estimate D2E/DX2                !
 ! A12   A(7,5,10)             123.1956         estimate D2E/DX2                !
 ! A13   A(4,6,7)              121.6078         estimate D2E/DX2                !
 ! A14   A(4,6,11)             119.3971         estimate D2E/DX2                !
 ! A15   A(7,6,11)             118.9951         estimate D2E/DX2                !
 ! A16   A(5,7,6)              117.9002         estimate D2E/DX2                !
 ! A17   A(5,7,12)             120.4381         estimate D2E/DX2                !
 ! A18   A(6,7,12)             121.6617         estimate D2E/DX2                !
 ! D1    D(5,2,3,1)            180.0            estimate D2E/DX2                !
 ! D2    D(5,2,3,4)              0.0            estimate D2E/DX2                !
 ! D3    D(8,2,3,1)              0.0            estimate D2E/DX2                !
 ! D4    D(8,2,3,4)            180.0            estimate D2E/DX2                !
 ! D5    D(3,2,5,7)              0.0            estimate D2E/DX2                !
 ! D6    D(3,2,5,10)           180.0            estimate D2E/DX2                !
 ! D7    D(8,2,5,7)            180.0            estimate D2E/DX2                !
 ! D8    D(8,2,5,10)             0.0            estimate D2E/DX2                !
 ! D9    D(1,3,4,6)            180.0            estimate D2E/DX2                !
 ! D10   D(1,3,4,9)              0.0            estimate D2E/DX2                !
 ! D11   D(2,3,4,6)              0.0            estimate D2E/DX2                !
 ! D12   D(2,3,4,9)            180.0            estimate D2E/DX2                !
 ! D13   D(3,4,6,7)              0.0            estimate D2E/DX2                !
 ! D14   D(3,4,6,11)           180.0            estimate D2E/DX2                !
 ! D15   D(9,4,6,7)            180.0            estimate D2E/DX2                !
 ! D16   D(9,4,6,11)             0.0            estimate D2E/DX2                !
 ! D17   D(2,5,7,6)              0.0            estimate D2E/DX2                !
 ! D18   D(2,5,7,12)           180.0            estimate D2E/DX2                !
 ! D19   D(10,5,7,6)           180.0            estimate D2E/DX2                !
 ! D20   D(10,5,7,12)            0.0            estimate D2E/DX2                !
 ! D21   D(4,6,7,5)              0.0            estimate D2E/DX2                !
 ! D22   D(4,6,7,12)           180.0            estimate D2E/DX2                !
 ! D23   D(11,6,7,5)           180.0            estimate D2E/DX2                !
 ! D24   D(11,6,7,12)            0.0            estimate D2E/DX2                !
 --------------------------------------------------------------------------------
 Trust Radius=3.00D-01 FncErr=1.00D-07 GrdErr=1.00D-06
 Number of steps in this run=     64 maximum allowed number of steps=    100.
 GradGradGradGradGradGradGradGradGradGradGradGradGradGradGradGradGradGrad

 Leave Link  103 at Fri Aug 27 00:08:20 2021, MaxMem= 17179869184 cpu:         0.1
 (Enter /public3/home/sc51754/softwares/g09e01/l202.exe)
                          Input orientation:                          
 ---------------------------------------------------------------------
 Center     Atomic      Atomic             Coordinates (Angstroms)
 Number     Number       Type             X           Y           Z
 ---------------------------------------------------------------------
      1          8           0       -0.130304    2.267896    0.000000
      2          7           0       -1.132141    0.233271    0.000000
      3          6           0        0.000000    1.062005    0.000000
      4          6           0        1.237945    0.320111    0.000000
      5          6           0       -1.114407   -1.121885    0.000000
      6          6           0        1.256071   -1.032342    0.000000
      7          6           0        0.058564   -1.791590    0.000000
      8          1           0       -2.007624    0.732742    0.000000
      9          1           0        2.144218    0.908369    0.000000
     10          1           0       -2.076968   -1.614034    0.000000
     11          1           0        2.206750   -1.551299    0.000000
     12          1           0        0.071999   -2.869636    0.000000
 ---------------------------------------------------------------------
                    Distance matrix (angstroms):
                    1          2          3          4          5
     1  O    0.000000
     2  N    2.267901   0.000000
     3  C    1.212911   1.403048   0.000000
     4  C    2.380330   2.371676   1.443231   0.000000
     5  C    3.529741   1.355272   2.451791   2.759151   0.000000
     6  C    3.579610   2.702838   2.442131   1.352574   2.372169
     7  C    4.063877   2.349008   2.854196   2.418723   1.350691
     8  H    2.425083   1.007939   2.034445   3.271694   2.058514
     9  H    2.649861   3.345188   2.149715   1.080453   3.839345
    10  H    4.342681   2.074906   3.387474   3.837912   1.081080
    11  H    4.477507   3.785879   3.420395   2.107311   3.348803
    12  H    5.141514   3.328361   3.932300   3.396162   2.112390
                    6          7          8          9         10
     6  C    0.000000
     7  C    1.417914   0.000000
     8  H    3.710421   3.262114   0.000000
     9  H    2.134283   3.411705   4.155555   0.000000
    10  H    3.383418   2.142901   2.347800   4.917411   0.000000
    11  H    1.083101   2.161583   4.793516   2.460463   4.284177
    12  H    2.185790   1.078130   4.159562   4.308992   2.488894
                   11         12
    11  H    0.000000
    12  H    2.509019   0.000000
 Stoichiometry    C5H5NO
 Framework group  CS[SG(C5H5NO)]
 Deg. of freedom    21
 Full point group                 CS      NOp   2
 Largest Abelian subgroup         CS      NOp   2
 Largest concise Abelian subgroup C1      NOp   1
                         Standard orientation:                         
 ---------------------------------------------------------------------
 Center     Atomic      Atomic             Coordinates (Angstroms)
 Number     Number       Type             X           Y           Z
 ---------------------------------------------------------------------
      1          8           0       -0.130304    2.267896    0.000000
      2          7           0       -1.132141    0.233271    0.000000
      3          6           0       -0.000000    1.062005    0.000000
      4          6           0        1.237945    0.320111   -0.000000
      5          6           0       -1.114407   -1.121885    0.000000
      6          6           0        1.256071   -1.032342   -0.000000
      7          6           0        0.058564   -1.791590   -0.000000
      8          1           0       -2.007624    0.732742    0.000000
      9          1           0        2.144218    0.908369   -0.000000
     10          1           0       -2.076968   -1.614034    0.000000
     11          1           0        2.206750   -1.551299   -0.000000
     12          1           0        0.071999   -2.869636   -0.000000
 ---------------------------------------------------------------------
 Rotational constants (GHZ):      5.7341355      2.8228169      1.8916098
 Leave Link  202 at Fri Aug 27 00:08:20 2021, MaxMem= 17179869184 cpu:         5.7
 (Enter /public3/home/sc51754/softwares/g09e01/l301.exe)
 General basis read from cards:  (5D, 7F)
 Centers:       8      9     10     11     12
 S 4 1.00
     Exponent=  7.5423000000D+01 Coefficients=  2.4065000000D-03
     Exponent=  1.1350000000D+01 Coefficients=  1.8487000000D-02
     Exponent=  2.5993000000D+00 Coefficients=  8.9742000000D-02
     Exponent=  7.3513000000D-01 Coefficients=  2.8111000000D-01
 S 1 1.00
     Exponent=  2.3167000000D-01 Coefficients=  1.0000000000D+00
 S 1 1.00
     Exponent=  7.4147000000D-02 Coefficients=  1.0000000000D+00
 P 1 1.00
     Exponent=  1.6000000000D+00 Coefficients=  1.0000000000D+00
 P 1 1.00
     Exponent=  4.5000000000D-01 Coefficients=  1.0000000000D+00
 D 1 1.00
     Exponent=  1.2500000000D+00 Coefficients=  1.0000000000D+00
 ****
 Centers:       3      4      5      6      7
 S 7 1.00
     Exponent=  7.8571000000D+03 Coefficients=  5.6825000000D-04
     Exponent=  1.1787000000D+03 Coefficients=  4.3915000000D-03
     Exponent=  2.6832000000D+02 Coefficients=  2.2504000000D-02
     Exponent=  7.5948000000D+01 Coefficients=  8.6653000000D-02
     Exponent=  2.4559000000D+01 Coefficients=  2.4405000000D-01
     Exponent=  8.6212000000D+00 Coefficients=  4.4148000000D-01
     Exponent=  3.1278000000D+00 Coefficients=  3.5332000000D-01
 S 7 1.00
     Exponent=  1.1787000000D+03 Coefficients= -5.9492000000D-07
     Exponent=  2.6832000000D+02 Coefficients= -6.2748000000D-05
     Exponent=  7.5948000000D+01 Coefficients= -7.5773000000D-04
     Exponent=  2.4559000000D+01 Coefficients= -7.3308000000D-03
     Exponent=  8.6212000000D+00 Coefficients= -3.8932000000D-02
     Exponent=  3.1278000000D+00 Coefficients= -8.8908000000D-02
     Exponent=  8.2202000000D-01 Coefficients=  2.1689000000D-01
 S 1 1.00
     Exponent=  3.3017000000D-01 Coefficients=  1.0000000000D+00
 S 1 1.00
     Exponent=  1.1463000000D-01 Coefficients=  1.0000000000D+00
 P 4 1.00
     Exponent=  3.3775000000D+01 Coefficients=  6.0294000000D-03
     Exponent=  7.6766000000D+00 Coefficients=  4.3228000000D-02
     Exponent=  2.2357000000D+00 Coefficients=  1.6301000000D-01
     Exponent=  7.6447000000D-01 Coefficients=  3.6504000000D-01
 P 1 1.00
     Exponent=  2.6232000000D-01 Coefficients=  1.0000000000D+00
 P 1 1.00
     Exponent=  8.4638000000D-02 Coefficients=  1.0000000000D+00
 D 1 1.00
     Exponent=  1.4000000000D+00 Coefficients=  1.0000000000D+00
 D 1 1.00
     Exponent=  4.5000000000D-01 Coefficients=  1.0000000000D+00
 F 1 1.00
     Exponent=  9.5000000000D-01 Coefficients=  1.0000000000D+00
 ****
 Centers:       2
 S 7 1.00
     Exponent=  1.1101000000D+04 Coefficients=  5.4570000000D-04
     Exponent=  1.6653000000D+03 Coefficients=  4.2181000000D-03
     Exponent=  3.7908000000D+02 Coefficients=  2.1645000000D-02
     Exponent=  1.0730000000D+02 Coefficients=  8.3776000000D-02
     Exponent=  3.4747000000D+01 Coefficients=  2.3881000000D-01
     Exponent=  1.2249000000D+01 Coefficients=  4.3994000000D-01
     Exponent=  4.4743000000D+00 Coefficients=  3.6364000000D-01
 S 7 1.00
     Exponent=  1.6653000000D+03 Coefficients= -1.5006000000D-06
     Exponent=  3.7908000000D+02 Coefficients= -5.8753000000D-05
     Exponent=  1.0730000000D+02 Coefficients= -7.7453000000D-04
     Exponent=  3.4747000000D+01 Coefficients= -7.2161000000D-03
     Exponent=  1.2249000000D+01 Coefficients= -3.9338000000D-02
     Exponent=  4.4743000000D+00 Coefficients= -9.0611000000D-02
     Exponent=  1.2404000000D+00 Coefficients=  1.9882000000D-01
 S 1 1.00
     Exponent=  4.8743000000D-01 Coefficients=  1.0000000000D+00
 S 1 1.00
     Exponent=  1.6484000000D-01 Coefficients=  1.0000000000D+00
 P 4 1.00
     Exponent=  4.7934000000D+01 Coefficients=  6.1706000000D-03
     Exponent=  1.0999000000D+01 Coefficients=  4.4260000000D-02
     Exponent=  3.2472000000D+00 Coefficients=  1.6825000000D-01
     Exponent=  1.1114000000D+00 Coefficients=  3.6848000000D-01
 P 1 1.00
     Exponent=  3.7988000000D-01 Coefficients=  1.0000000000D+00
 P 1 1.00
     Exponent=  1.2068000000D-01 Coefficients=  1.0000000000D+00
 D 1 1.00
     Exponent=  1.8000000000D+00 Coefficients=  1.0000000000D+00
 D 1 1.00
     Exponent=  5.5000000000D-01 Coefficients=  1.0000000000D+00
 F 1 1.00
     Exponent=  1.0200000000D+00 Coefficients=  1.0000000000D+00
 ****
 Centers:       1
 S 7 1.00
     Exponent=  1.4782000000D+04 Coefficients=  5.3519000000D-04
     Exponent=  2.2173000000D+03 Coefficients=  4.1375000000D-03
     Exponent=  5.0474000000D+02 Coefficients=  2.1245000000D-02
     Exponent=  1.4287000000D+02 Coefficients=  8.2453000000D-02
     Exponent=  4.6300000000D+01 Coefficients=  2.3671000000D-01
     Exponent=  1.6337000000D+01 Coefficients=  4.4039000000D-01
     Exponent=  5.9828000000D+00 Coefficients=  3.6465000000D-01
 S 7 1.00
     Exponent=  2.2173000000D+03 Coefficients= -1.9275000000D-06
     Exponent=  5.0474000000D+02 Coefficients= -5.7964000000D-05
     Exponent=  1.4287000000D+02 Coefficients= -7.9494000000D-04
     Exponent=  4.6300000000D+01 Coefficients= -7.3125000000D-03
     Exponent=  1.6337000000D+01 Coefficients= -4.0574000000D-02
     Exponent=  5.9828000000D+00 Coefficients= -9.1594000000D-02
     Exponent=  1.6718000000D+00 Coefficients=  2.0940000000D-01
 S 1 1.00
     Exponent=  6.4662000000D-01 Coefficients=  1.0000000000D+00
 S 1 1.00
     Exponent=  2.1669000000D-01 Coefficients=  1.0000000000D+00
 P 4 1.00
     Exponent=  6.0424000000D+01 Coefficients=  6.8949000000D-03
     Exponent=  1.3935000000D+01 Coefficients=  4.9005000000D-02
     Exponent=  4.1531000000D+00 Coefficients=  1.8255000000D-01
     Exponent=  1.4158000000D+00 Coefficients=  3.7633000000D-01
 P 1 1.00
     Exponent=  4.7549000000D-01 Coefficients=  1.0000000000D+00
 P 1 1.00
     Exponent=  1.4529000000D-01 Coefficients=  1.0000000000D+00
 D 1 1.00
     Exponent=  2.2000000000D+00 Coefficients=  1.0000000000D+00
 D 1 1.00
     Exponent=  6.5000000000D-01 Coefficients=  1.0000000000D+00
 F 1 1.00
     Exponent=  1.1000000000D+00 Coefficients=  1.0000000000D+00
 ****
 Ernie: Thresh=  0.10000D-02 Tol=  0.10000D-05 Strict=F.
 Ernie:  7 primitive shells out of 220 were deleted.
 There are   223 symmetry adapted cartesian basis functions of A'  symmetry.
 There are    97 symmetry adapted cartesian basis functions of A"  symmetry.
 There are   190 symmetry adapted basis functions of A'  symmetry.
 There are    90 symmetry adapted basis functions of A"  symmetry.
   280 basis functions,   475 primitive gaussians,   320 cartesian basis functions
    25 alpha electrons       25 beta electrons
       nuclear repulsion energy       276.8386644497 Hartrees.
 IExCor=  402 DFT=T Ex+Corr=BHandHLYP ExCW=0 ScaHFX=  0.500000
 ScaDFX=  0.500000  0.500000  1.000000  1.000000 ScalE2=  1.000000  1.000000
 IRadAn=      0 IRanWt=     -1 IRanGd=            0 ICorTp=0 IEmpDi=  4
 NAtoms=   12 NActive=   12 NUniq=   12 SFac= 1.00D+00 NAtFMM=   60 NAOKFM=F Big=F
 Integral buffers will be    131072 words long.
 Raffenetti 2 integral format.
 Two-electron integral symmetry is turned on.
 Leave Link  301 at Fri Aug 27 00:08:20 2021, MaxMem= 17179869184 cpu:         3.4
 (Enter /public3/home/sc51754/softwares/g09e01/l302.exe)
 NPDir=0 NMtPBC=     1 NCelOv=     1 NCel=       1 NClECP=     1 NCelD=      1
         NCelK=      1 NCelE2=     1 NClLst=     1 CellRange=     0.0.
 One-electron integrals computed using PRISM.
 NBasis=   280 RedAO= T EigKep=  2.29D-04  NBF=   190    90
 NBsUse=   280 1.00D-06 EigRej= -1.00D+00 NBFU=   190    90
 Precomputing XC quadrature grid using
 IXCGrd= 4 IRadAn=           0 IRanWt=          -1 IRanGd=           0 AccXCQ= 0.00D+00.
 Generated NRdTot=       0 NPtTot=           0 NUsed=           0 NTot=          32
 NSgBfM=   320   320   320   320   320 MxSgAt=    12 MxSgA2=    12.
 Leave Link  302 at Fri Aug 27 00:08:21 2021, MaxMem= 17179869184 cpu:        39.9
 (Enter /public3/home/sc51754/softwares/g09e01/l303.exe)
 DipDrv:  MaxL=1.
 Leave Link  303 at Fri Aug 27 00:08:22 2021, MaxMem= 17179869184 cpu:        14.7
 (Enter /public3/home/sc51754/softwares/g09e01/l401.exe)
 ExpMin= 7.41D-02 ExpMax= 1.48D+04 ExpMxC= 5.05D+02 IAcc=2 IRadAn=         4 AccDes= 0.00D+00
 Harris functional with IExCor=  402 and IRadAn=       4 diagonalized for initial guess.
 HarFok:  IExCor=  402 AccDes= 0.00D+00 IRadAn=         4 IDoV= 1 UseB2=F ITyADJ=14
 ICtDFT=  3500011 ScaDFX=  1.000000  1.000000  1.000000  1.000000
 FoFCou: FMM=F IPFlag=           0 FMFlag=      100000 FMFlg1=           0
         NFxFlg=           0 DoJE=T BraDBF=F KetDBF=T FulRan=T
         wScrn=  0.000000 ICntrl=     500 IOpCl=  0 I1Cent=   200000004 NGrid=           0
         NMat0=    1 NMatS0=      1 NMatT0=    0 NMatD0=    1 NMtDS0=    0 NMtDT0=    0
 Petite list used in FoFCou.
 Harris En= -323.703757567270    
 JPrj=0 DoOrth=F DoCkMO=F.
 Initial guess orbital symmetries:
       Occupied  (A') (A') (A') (A') (A') (A') (A') (A') (A') (A')
                 (A') (A') (A') (A') (A') (A') (A') (A') (A") (A')
                 (A') (A") (A") (A') (A")
       Virtual   (A") (A") (A') (A') (A") (A') (A') (A') (A') (A')
                 (A') (A") (A') (A') (A") (A") (A') (A') (A') (A')
                 (A') (A") (A') (A') (A") (A') (A') (A') (A') (A')
                 (A") (A') (A') (A') (A") (A') (A') (A') (A') (A')
                 (A') (A') (A") (A') (A') (A') (A') (A") (A") (A")
                 (A') (A") (A') (A') (A") (A') (A') (A') (A') (A")
                 (A') (A") (A') (A') (A") (A') (A") (A') (A") (A")
                 (A') (A') (A') (A") (A') (A") (A') (A") (A') (A')
                 (A") (A') (A") (A') (A") (A') (A') (A') (A") (A")
                 (A') (A') (A') (A") (A') (A') (A') (A') (A") (A')
                 (A') (A') (A") (A') (A') (A') (A") (A') (A') (A')
                 (A") (A') (A') (A') (A') (A') (A") (A') (A') (A')
                 (A") (A') (A") (A') (A') (A") (A") (A") (A') (A")
                 (A') (A') (A") (A') (A') (A") (A') (A") (A') (A')
                 (A') (A') (A') (A") (A') (A") (A') (A') (A') (A')
                 (A') (A") (A") (A") (A") (A') (A") (A") (A') (A")
                 (A') (A") (A') (A') (A") (A') (A') (A') (A') (A")
                 (A') (A") (A') (A") (A") (A') (A") (A') (A") (A")
                 (A') (A") (A') (A") (A") (A') (A') (A") (A') (A")
                 (A') (A") (A') (A") (A') (A") (A') (A') (A") (A')
                 (A') (A') (A") (A') (A") (A') (A") (A') (A') (A')
                 (A") (A') (A') (A") (A') (A") (A') (A") (A') (A')
                 (A") (A') (A") (A') (A") (A') (A') (A') (A") (A')
                 (A') (A') (A') (A") (A') (A") (A') (A') (A') (A')
                 (A') (A") (A') (A') (A') (A') (A') (A') (A') (A')
                 (A') (A') (A') (A') (A')
 The electronic state of the initial guess is 1-A'.
 Leave Link  401 at Fri Aug 27 00:08:24 2021, MaxMem= 17179869184 cpu:       111.7
 (Enter /public3/home/sc51754/softwares/g09e01/l502.exe)
 Closed shell SCF:
 Using DIIS extrapolation, IDIIS=  1040.
 Integral symmetry usage will be decided dynamically.
 Keep R1 ints in memory in symmetry-blocked form, NReq=1167802198.
 IVT=      348658 IEndB=      348658 NGot= 17179869184 MDV= 16785904737
 LenX= 16785904737 LenY= 16785801896
 Requested convergence on RMS density matrix=1.00D-08 within 128 cycles.
 Requested convergence on MAX density matrix=1.00D-06.
 Requested convergence on             energy=1.00D-06.
 No special actions if energy rises.
 FoFCou: FMM=F IPFlag=           0 FMFlag=           0 FMFlg1=           0
         NFxFlg=           0 DoJE=F BraDBF=F KetDBF=F FulRan=T
         wScrn=  0.000000 ICntrl=     600 IOpCl=  0 I1Cent=           0 NGrid=           0
         NMat0=    1 NMatS0=  39340 NMatT0=    0 NMatD0=    1 NMtDS0=    0 NMtDT0=    0
 Petite list used in FoFCou.
 Integral accuracy reduced to 1.0D-05 until final iterations.

 Cycle   1  Pass 0  IDiag  1:
 E= -323.221431502585    
 DIIS: error= 3.59D-02 at cycle   1 NSaved=   1.
 NSaved= 1 IEnMin= 1 EnMin= -323.221431502585     IErMin= 1 ErrMin= 3.59D-02
 ErrMax= 3.59D-02  0.00D+00 EMaxC= 1.00D-01 BMatC= 2.97D-01 BMatP= 2.97D-01
 IDIUse=3 WtCom= 6.41D-01 WtEn= 3.59D-01
 Coeff-Com:  0.100D+01
 Coeff-En:   0.100D+01
 Coeff:      0.100D+01
 Gap=     0.225 Goal=   None    Shift=    0.000
 GapD=    0.225 DampG=1.000 DampE=0.500 DampFc=0.5000 IDamp=-1.
 Damping current iteration by 5.00D-01
 RMSDP=3.03D-03 MaxDP=1.31D-01              OVMax= 2.43D-01

 Cycle   2  Pass 0  IDiag  1:
 E= -323.331911872027     Delta-E=       -0.110480369442 Rises=F Damp=T
 DIIS: error= 1.15D-02 at cycle   2 NSaved=   2.
 NSaved= 2 IEnMin= 2 EnMin= -323.331911872027     IErMin= 2 ErrMin= 1.15D-02
 ErrMax= 1.15D-02  0.00D+00 EMaxC= 1.00D-01 BMatC= 2.70D-02 BMatP= 2.97D-01
 IDIUse=3 WtCom= 8.85D-01 WtEn= 1.15D-01
 Coeff-Com: -0.200D-01 0.102D+01
 Coeff-En:   0.000D+00 0.100D+01
 Coeff:     -0.177D-01 0.102D+01
 Gap=     0.279 Goal=   None    Shift=    0.000
 RMSDP=8.62D-04 MaxDP=3.68D-02 DE=-1.10D-01 OVMax= 1.36D-01

 Cycle   3  Pass 0  IDiag  1:
 E= -323.445510131797     Delta-E=       -0.113598259770 Rises=F Damp=F
 DIIS: error= 8.31D-03 at cycle   3 NSaved=   3.
 NSaved= 3 IEnMin= 3 EnMin= -323.445510131797     IErMin= 3 ErrMin= 8.31D-03
 ErrMax= 8.31D-03  0.00D+00 EMaxC= 1.00D-01 BMatC= 1.74D-02 BMatP= 2.70D-02
 IDIUse=3 WtCom= 9.17D-01 WtEn= 8.31D-02
 Coeff-Com: -0.970D-01 0.477D+00 0.620D+00
 Coeff-En:   0.000D+00 0.000D+00 0.100D+01
 Coeff:     -0.889D-01 0.437D+00 0.652D+00
 Gap=     0.258 Goal=   None    Shift=    0.000
 RMSDP=3.98D-04 MaxDP=2.08D-02 DE=-1.14D-01 OVMax= 5.27D-02

 Cycle   4  Pass 0  IDiag  1:
 E= -323.456799753693     Delta-E=       -0.011289621896 Rises=F Damp=F
 DIIS: error= 3.32D-03 at cycle   4 NSaved=   4.
 NSaved= 4 IEnMin= 4 EnMin= -323.456799753693     IErMin= 4 ErrMin= 3.32D-03
 ErrMax= 3.32D-03  0.00D+00 EMaxC= 1.00D-01 BMatC= 2.68D-03 BMatP= 1.74D-02
 IDIUse=3 WtCom= 9.67D-01 WtEn= 3.32D-02
 Coeff-Com: -0.349D-01 0.704D-01 0.322D+00 0.643D+00
 Coeff-En:   0.000D+00 0.000D+00 0.113D+00 0.887D+00
 Coeff:     -0.338D-01 0.681D-01 0.315D+00 0.651D+00
 Gap=     0.260 Goal=   None    Shift=    0.000
 RMSDP=1.38D-04 MaxDP=6.14D-03 DE=-1.13D-02 OVMax= 1.14D-02

 Cycle   5  Pass 0  IDiag  1:
 E= -323.459022960456     Delta-E=       -0.002223206763 Rises=F Damp=F
 DIIS: error= 3.96D-04 at cycle   5 NSaved=   5.
 NSaved= 5 IEnMin= 5 EnMin= -323.459022960456     IErMin= 5 ErrMin= 3.96D-04
 ErrMax= 3.96D-04  0.00D+00 EMaxC= 1.00D-01 BMatC= 4.32D-05 BMatP= 2.68D-03
 IDIUse=3 WtCom= 9.96D-01 WtEn= 3.96D-03
 Coeff-Com: -0.606D-02-0.776D-04 0.615D-01 0.190D+00 0.755D+00
 Coeff-En:   0.000D+00 0.000D+00 0.000D+00 0.000D+00 0.100D+01
 Coeff:     -0.604D-02-0.773D-04 0.612D-01 0.189D+00 0.756D+00
 Gap=     0.260 Goal=   None    Shift=    0.000
 RMSDP=2.40D-05 MaxDP=1.04D-03 DE=-2.22D-03 OVMax= 4.30D-03

 Cycle   6  Pass 0  IDiag  1:
 E= -323.459067724535     Delta-E=       -0.000044764079 Rises=F Damp=F
 DIIS: error= 2.50D-04 at cycle   6 NSaved=   6.
 NSaved= 6 IEnMin= 6 EnMin= -323.459067724535     IErMin= 6 ErrMin= 2.50D-04
 ErrMax= 2.50D-04  0.00D+00 EMaxC= 1.00D-01 BMatC= 7.77D-06 BMatP= 4.32D-05
 IDIUse=3 WtCom= 9.98D-01 WtEn= 2.50D-03
 Coeff-Com: -0.438D-03-0.413D-02 0.828D-02 0.400D-01 0.325D+00 0.631D+00
 Coeff-En:   0.000D+00 0.000D+00 0.000D+00 0.000D+00 0.000D+00 0.100D+01
 Coeff:     -0.437D-03-0.412D-02 0.826D-02 0.399D-01 0.325D+00 0.632D+00
 Gap=     0.260 Goal=   None    Shift=    0.000
 RMSDP=1.15D-05 MaxDP=4.31D-04 DE=-4.48D-05 OVMax= 1.61D-03

 Cycle   7  Pass 0  IDiag  1:
 E= -323.459077157211     Delta-E=       -0.000009432675 Rises=F Damp=F
 DIIS: error= 7.68D-05 at cycle   7 NSaved=   7.
 NSaved= 7 IEnMin= 7 EnMin= -323.459077157211     IErMin= 7 ErrMin= 7.68D-05
 ErrMax= 7.68D-05  0.00D+00 EMaxC= 1.00D-01 BMatC= 1.12D-06 BMatP= 7.77D-06
 IDIUse=1 WtCom= 1.00D+00 WtEn= 0.00D+00
 Coeff-Com:  0.158D-02-0.177D-02-0.120D-01-0.399D-01-0.939D-01 0.179D+00
 Coeff-Com:  0.967D+00
 Coeff:      0.158D-02-0.177D-02-0.120D-01-0.399D-01-0.939D-01 0.179D+00
 Coeff:      0.967D+00
 Gap=     0.260 Goal=   None    Shift=    0.000
 RMSDP=7.03D-06 MaxDP=2.47D-04 DE=-9.43D-06 OVMax= 1.28D-03

 Initial convergence to 1.0D-05 achieved.  Increase integral accuracy.
 Cycle   8  Pass 1  IDiag  1:
 E= -323.459065645596     Delta-E=        0.000011511614 Rises=F Damp=F
 DIIS: error= 2.89D-05 at cycle   1 NSaved=   1.
 NSaved= 1 IEnMin= 1 EnMin= -323.459065645596     IErMin= 1 ErrMin= 2.89D-05
 ErrMax= 2.89D-05  0.00D+00 EMaxC= 1.00D-01 BMatC= 2.10D-07 BMatP= 2.10D-07
 IDIUse=1 WtCom= 1.00D+00 WtEn= 0.00D+00
 Coeff-Com:  0.100D+01
 Coeff:      0.100D+01
 Gap=     0.260 Goal=   None    Shift=    0.000
 RMSDP=7.03D-06 MaxDP=2.47D-04 DE= 1.15D-05 OVMax= 3.37D-04

 Cycle   9  Pass 1  IDiag  1:
 E= -323.459065758117     Delta-E=       -0.000000112520 Rises=F Damp=F
 DIIS: error= 2.76D-05 at cycle   2 NSaved=   2.
 NSaved= 2 IEnMin= 2 EnMin= -323.459065758117     IErMin= 2 ErrMin= 2.76D-05
 ErrMax= 2.76D-05  0.00D+00 EMaxC= 1.00D-01 BMatC= 2.12D-07 BMatP= 2.10D-07
 IDIUse=1 WtCom= 1.00D+00 WtEn= 0.00D+00
 Coeff-Com:  0.501D+00 0.499D+00
 Coeff:      0.501D+00 0.499D+00
 Gap=     0.260 Goal=   None    Shift=    0.000
 RMSDP=1.32D-06 MaxDP=6.38D-05 DE=-1.13D-07 OVMax= 1.96D-04

 Cycle  10  Pass 1  IDiag  1:
 E= -323.459065938101     Delta-E=       -0.000000179984 Rises=F Damp=F
 DIIS: error= 6.09D-06 at cycle   3 NSaved=   3.
 NSaved= 3 IEnMin= 3 EnMin= -323.459065938101     IErMin= 3 ErrMin= 6.09D-06
 ErrMax= 6.09D-06  0.00D+00 EMaxC= 1.00D-01 BMatC= 1.07D-08 BMatP= 2.10D-07
 IDIUse=1 WtCom= 1.00D+00 WtEn= 0.00D+00
 Coeff-Com: -0.212D-01 0.133D+00 0.889D+00
 Coeff:     -0.212D-01 0.133D+00 0.889D+00
 Gap=     0.260 Goal=   None    Shift=    0.000
 RMSDP=5.83D-07 MaxDP=2.02D-05 DE=-1.80D-07 OVMax= 5.47D-05

 Cycle  11  Pass 1  IDiag  1:
 E= -323.459065952365     Delta-E=       -0.000000014264 Rises=F Damp=F
 DIIS: error= 4.06D-06 at cycle   4 NSaved=   4.
 NSaved= 4 IEnMin= 4 EnMin= -323.459065952365     IErMin= 4 ErrMin= 4.06D-06
 ErrMax= 4.06D-06  0.00D+00 EMaxC= 1.00D-01 BMatC= 2.62D-09 BMatP= 1.07D-08
 IDIUse=1 WtCom= 1.00D+00 WtEn= 0.00D+00
 Coeff-Com: -0.690D-01 0.755D-02 0.413D+00 0.648D+00
 Coeff:     -0.690D-01 0.755D-02 0.413D+00 0.648D+00
 Gap=     0.260 Goal=   None    Shift=    0.000
 RMSDP=2.07D-07 MaxDP=1.09D-05 DE=-1.43D-08 OVMax= 4.09D-05

 Cycle  12  Pass 1  IDiag  1:
 E= -323.459065956001     Delta-E=       -0.000000003636 Rises=F Damp=F
 DIIS: error= 9.06D-07 at cycle   5 NSaved=   5.
 NSaved= 5 IEnMin= 5 EnMin= -323.459065956001     IErMin= 5 ErrMin= 9.06D-07
 ErrMax= 9.06D-07  0.00D+00 EMaxC= 1.00D-01 BMatC= 3.78D-10 BMatP= 2.62D-09
 IDIUse=1 WtCom= 1.00D+00 WtEn= 0.00D+00
 Coeff-Com: -0.976D-02-0.213D-01-0.106D+00 0.181D+00 0.956D+00
 Coeff:     -0.976D-02-0.213D-01-0.106D+00 0.181D+00 0.956D+00
 Gap=     0.260 Goal=   None    Shift=    0.000
 RMSDP=1.22D-07 MaxDP=5.01D-06 DE=-3.64D-09 OVMax= 1.99D-05

 Cycle  13  Pass 1  IDiag  1:
 E= -323.459065956609     Delta-E=       -0.000000000608 Rises=F Damp=F
 DIIS: error= 6.69D-07 at cycle   6 NSaved=   6.
 NSaved= 6 IEnMin= 6 EnMin= -323.459065956609     IErMin= 6 ErrMin= 6.69D-07
 ErrMax= 6.69D-07  0.00D+00 EMaxC= 1.00D-01 BMatC= 7.43D-11 BMatP= 3.78D-10
 IDIUse=1 WtCom= 1.00D+00 WtEn= 0.00D+00
 Coeff-Com:  0.656D-02-0.115D-01-0.122D+00 0.142D-02 0.499D+00 0.627D+00
 Coeff:      0.656D-02-0.115D-01-0.122D+00 0.142D-02 0.499D+00 0.627D+00
 Gap=     0.260 Goal=   None    Shift=    0.000
 RMSDP=3.90D-08 MaxDP=1.44D-06 DE=-6.08D-10 OVMax= 6.65D-06

 Cycle  14  Pass 1  IDiag  1:
 E= -323.459065956706     Delta-E=       -0.000000000097 Rises=F Damp=F
 DIIS: error= 1.37D-07 at cycle   7 NSaved=   7.
 NSaved= 7 IEnMin= 7 EnMin= -323.459065956706     IErMin= 7 ErrMin= 1.37D-07
 ErrMax= 1.37D-07  0.00D+00 EMaxC= 1.00D-01 BMatC= 3.35D-12 BMatP= 7.43D-11
 IDIUse=1 WtCom= 1.00D+00 WtEn= 0.00D+00
 Coeff-Com:  0.288D-02-0.301D-02-0.376D-01-0.109D-01 0.114D+00 0.235D+00
 Coeff-Com:  0.700D+00
 Coeff:      0.288D-02-0.301D-02-0.376D-01-0.109D-01 0.114D+00 0.235D+00
 Coeff:      0.700D+00
 Gap=     0.260 Goal=   None    Shift=    0.000
 RMSDP=7.66D-09 MaxDP=2.69D-07 DE=-9.71D-11 OVMax= 1.05D-06

 SCF Done:  E(RBHandHLYP) =  -323.459065957     A.U. after   14 cycles
            NFock= 14  Conv=0.77D-08     -V/T= 2.0037
 KE= 3.222654341299D+02 PE=-1.308329549032D+03 EE= 3.857663844956D+02
 Leave Link  502 at Fri Aug 27 00:08:30 2021, MaxMem= 17179869184 cpu:       263.8
 (Enter /public3/home/sc51754/softwares/g09e01/l601.exe)
 Copying SCF densities to generalized density rwf, IOpCl= 0 IROHF=0.

 **********************************************************************

            Population analysis using the SCF density.

 **********************************************************************

 Orbital symmetries:
       Occupied  (A') (A') (A') (A') (A') (A') (A') (A') (A') (A')
                 (A') (A') (A') (A') (A') (A') (A') (A") (A') (A')
                 (A') (A") (A") (A') (A")
       Virtual   (A") (A') (A") (A') (A') (A') (A') (A') (A") (A')
                 (A') (A") (A') (A') (A") (A") (A') (A') (A") (A')
                 (A') (A') (A") (A') (A') (A') (A') (A') (A') (A')
                 (A") (A') (A') (A') (A") (A') (A') (A') (A') (A')
                 (A') (A') (A") (A') (A') (A') (A") (A') (A") (A")
                 (A') (A") (A') (A') (A") (A') (A') (A') (A') (A")
                 (A') (A') (A") (A") (A') (A') (A') (A') (A") (A")
                 (A') (A") (A') (A') (A") (A") (A') (A") (A') (A')
                 (A") (A') (A') (A") (A") (A') (A') (A') (A") (A')
                 (A") (A') (A') (A") (A') (A') (A') (A') (A") (A')
                 (A') (A') (A') (A') (A") (A") (A') (A') (A') (A')
                 (A") (A') (A') (A') (A') (A') (A") (A') (A') (A")
                 (A') (A') (A') (A") (A') (A") (A") (A") (A") (A')
                 (A') (A") (A') (A') (A") (A') (A") (A') (A') (A')
                 (A') (A') (A") (A') (A') (A") (A') (A') (A') (A')
                 (A') (A") (A") (A") (A") (A") (A') (A") (A") (A')
                 (A') (A") (A') (A') (A") (A') (A') (A') (A") (A')
                 (A") (A') (A') (A") (A") (A') (A') (A") (A") (A")
                 (A') (A") (A') (A") (A") (A') (A') (A") (A') (A")
                 (A') (A") (A') (A") (A') (A") (A') (A') (A") (A')
                 (A') (A") (A') (A") (A') (A') (A") (A') (A') (A')
                 (A") (A') (A") (A') (A") (A') (A') (A") (A') (A')
                 (A") (A') (A') (A") (A") (A') (A') (A") (A') (A')
                 (A') (A') (A") (A') (A') (A') (A') (A") (A') (A')
                 (A') (A') (A") (A') (A') (A') (A') (A') (A') (A')
                 (A') (A') (A') (A') (A')
 The electronic state is 1-A'.
 Alpha  occ. eigenvalues --  -19.63249 -14.86001 -10.69425 -10.65705 -10.61762
 Alpha  occ. eigenvalues --  -10.59648 -10.59348  -1.18214  -1.09425  -0.94557
 Alpha  occ. eigenvalues --   -0.87752  -0.75749  -0.73750  -0.65189  -0.59468
 Alpha  occ. eigenvalues --   -0.57327  -0.54329  -0.52010  -0.51168  -0.47058
 Alpha  occ. eigenvalues --   -0.45120  -0.41557  -0.36876  -0.33294  -0.27152
 Alpha virt. eigenvalues --   -0.01142   0.03029   0.04823   0.05316   0.06768
 Alpha virt. eigenvalues --    0.09392   0.10242   0.16192   0.16809   0.17671
 Alpha virt. eigenvalues --    0.18854   0.18925   0.21156   0.22418   0.22557
 Alpha virt. eigenvalues --    0.23711   0.26229   0.27029   0.30469   0.31448
 Alpha virt. eigenvalues --    0.32083   0.33432   0.33445   0.34019   0.35294
 Alpha virt. eigenvalues --    0.37177   0.39667   0.40826   0.42874   0.44954
 Alpha virt. eigenvalues --    0.44990   0.46774   0.49622   0.50934   0.53287
 Alpha virt. eigenvalues --    0.53877   0.56259   0.57476   0.59779   0.65054
 Alpha virt. eigenvalues --    0.67571   0.67805   0.69729   0.70861   0.73128
 Alpha virt. eigenvalues --    0.76233   0.81693   0.82669   0.85001   0.86607
 Alpha virt. eigenvalues --    0.87260   0.90215   0.96347   0.98142   0.99069
 Alpha virt. eigenvalues --    1.01411   1.03292   1.05339   1.07502   1.13689
 Alpha virt. eigenvalues --    1.14517   1.17033   1.19114   1.20805   1.21073
 Alpha virt. eigenvalues --    1.21619   1.24442   1.26521   1.27132   1.31927
 Alpha virt. eigenvalues --    1.32357   1.34178   1.34363   1.36658   1.36867
 Alpha virt. eigenvalues --    1.42943   1.46561   1.48591   1.49139   1.51759
 Alpha virt. eigenvalues --    1.53193   1.55002   1.56368   1.58908   1.63679
 Alpha virt. eigenvalues --    1.64343   1.66445   1.70371   1.74476   1.74699
 Alpha virt. eigenvalues --    1.75365   1.75916   1.80371   1.80456   1.83849
 Alpha virt. eigenvalues --    1.88432   1.88547   1.94375   1.95250   1.98361
 Alpha virt. eigenvalues --    2.01171   2.05418   2.10267   2.11282   2.11743
 Alpha virt. eigenvalues --    2.17489   2.17646   2.24570   2.25340   2.31221
 Alpha virt. eigenvalues --    2.33158   2.34489   2.37011   2.38120   2.41546
 Alpha virt. eigenvalues --    2.49211   2.64606   2.72868   2.75484   2.97395
 Alpha virt. eigenvalues --    2.99277   3.03062   3.04994   3.05908   3.28357
 Alpha virt. eigenvalues --    3.28671   3.32217   3.33318   3.35306   3.36598
 Alpha virt. eigenvalues --    3.39148   3.42779   3.44845   3.46670   3.50095
 Alpha virt. eigenvalues --    3.54039   3.58935   3.61619   3.65916   3.67933
 Alpha virt. eigenvalues --    3.70674   3.74526   3.77707   3.78447   3.80017
 Alpha virt. eigenvalues --    3.81011   3.83309   3.89440   3.97921   3.99779
 Alpha virt. eigenvalues --    4.03295   4.05476   4.06852   4.07933   4.10443
 Alpha virt. eigenvalues --    4.13199   4.14041   4.15069   4.19556   4.20128
 Alpha virt. eigenvalues --    4.20715   4.23832   4.26219   4.27127   4.29104
 Alpha virt. eigenvalues --    4.32553   4.33205   4.34071   4.36160   4.36795
 Alpha virt. eigenvalues --    4.38562   4.39350   4.40298   4.41549   4.44195
 Alpha virt. eigenvalues --    4.44208   4.45285   4.45519   4.46900   4.51760
 Alpha virt. eigenvalues --    4.53993   4.57165   4.58303   4.59208   4.60283
 Alpha virt. eigenvalues --    4.61737   4.63603   4.63705   4.68674   4.69701
 Alpha virt. eigenvalues --    4.70472   4.71471   4.74219   4.74583   4.80474
 Alpha virt. eigenvalues --    4.84977   4.87061   4.89449   4.97067   4.98319
 Alpha virt. eigenvalues --    5.01114   5.05262   5.05682   5.09558   5.11165
 Alpha virt. eigenvalues --    5.14267   5.21741   5.25139   5.29059   5.32033
 Alpha virt. eigenvalues --    5.34936   5.38131   5.43635   5.44859   5.47008
 Alpha virt. eigenvalues --    5.48229   5.53356   5.54720   5.54783   5.59604
 Alpha virt. eigenvalues --    5.62087   5.67668   5.70157   5.71258   5.73100
 Alpha virt. eigenvalues --    5.76380   5.83465   5.85315   5.85681   5.92572
 Alpha virt. eigenvalues --    5.96812   6.05119   6.10921   6.11593   6.21208
 Alpha virt. eigenvalues --    6.23552   6.26349   6.35107   6.37065   6.43312
 Alpha virt. eigenvalues --    6.52335   6.66707   6.70623   6.73006   6.96693
 Alpha virt. eigenvalues --    7.14548   7.15676   7.39785   9.70979  12.46922
 Alpha virt. eigenvalues --   13.35235  14.85625  18.03403  18.50082  23.04308
          Condensed to atoms (all electrons):
               1          2          3          4          5          6
     1  O    8.077967  -0.116871   0.601888  -0.057866   0.005630   0.005268
     2  N   -0.116871   6.444031   0.375990  -0.046618   0.374053  -0.018062
     3  C    0.601888   0.375990   4.233203   0.440110  -0.040429  -0.034831
     4  C   -0.057866  -0.046618   0.440110   4.901429  -0.036134   0.569279
     5  C    0.005630   0.374053  -0.040429  -0.036134   4.516655  -0.085798
     6  C    0.005268  -0.018062  -0.034831   0.569279  -0.085798   4.663496
     7  C    0.001572  -0.061148  -0.018419  -0.073362   0.648607   0.457647
     8  H    0.011824   0.399039  -0.021728   0.011873  -0.027083  -0.003629
     9  H    0.003787   0.004994  -0.036370   0.446617  -0.000044  -0.031377
    10  H   -0.000945  -0.036672   0.001449  -0.004029   0.424945   0.007630
    11  H   -0.000412  -0.001878   0.004674  -0.027836   0.007037   0.424545
    12  H    0.000024   0.004806  -0.000430   0.005044  -0.027678  -0.025907
               7          8          9         10         11         12
     1  O    0.001572   0.011824   0.003787  -0.000945  -0.000412   0.000024
     2  N   -0.061148   0.399039   0.004994  -0.036672  -0.001878   0.004806
     3  C   -0.018419  -0.021728  -0.036370   0.001449   0.004674  -0.000430
     4  C   -0.073362   0.011873   0.446617  -0.004029  -0.027836   0.005044
     5  C    0.648607  -0.027083  -0.000044   0.424945   0.007037  -0.027678
     6  C    0.457647  -0.003629  -0.031377   0.007630   0.424545  -0.025907
     7  C    4.804709   0.006482   0.005200  -0.029375  -0.036032   0.438427
     8  H    0.006482   0.473536  -0.000382  -0.010003   0.000244  -0.000297
     9  H    0.005200  -0.000382   0.575001   0.000242  -0.006260  -0.000116
    10  H   -0.029375  -0.010003   0.000242   0.600660  -0.000339  -0.002834
    11  H   -0.036032   0.000244  -0.006260  -0.000339   0.598849  -0.005156
    12  H    0.438427  -0.000297  -0.000116  -0.002834  -0.005156   0.585303
 Mulliken charges:
               1
     1  O   -0.531867
     2  N   -0.321665
     3  C    0.494893
     4  C   -0.128507
     5  C    0.240239
     6  C    0.071739
     7  C   -0.144308
     8  H    0.160124
     9  H    0.038708
    10  H    0.049269
    11  H    0.042563
    12  H    0.028814
 Sum of Mulliken charges =  -0.00000
 Mulliken charges with hydrogens summed into heavy atoms:
               1
     1  O   -0.531867
     2  N   -0.161542
     3  C    0.494893
     4  C   -0.089799
     5  C    0.289508
     6  C    0.114301
     7  C   -0.115494
 Electronic spatial extent (au):  <R**2>=            626.1035
 Charge=             -0.0000 electrons
 Dipole moment (field-independent basis, Debye):
    X=             -1.1762    Y=             -4.4006    Z=             -0.0000  Tot=              4.5551
 Quadrupole moment (field-independent basis, Debye-Ang):
   XX=            -31.2920   YY=            -48.1682   ZZ=            -43.2398
   XY=              0.1507   XZ=              0.0000   YZ=             -0.0000
 Traceless Quadrupole moment (field-independent basis, Debye-Ang):
   XX=              9.6080   YY=             -7.2682   ZZ=             -2.3398
   XY=              0.1507   XZ=              0.0000   YZ=             -0.0000
 Octapole moment (field-independent basis, Debye-Ang**2):
  XXX=            -11.6423  YYY=            -31.5850  ZZZ=              0.0000  XYY=              0.1414
  XXY=              0.7019  XXZ=              0.0000  XZZ=             -2.1897  YZZ=              5.5302
  YYZ=             -0.0000  XYZ=              0.0000
 Hexadecapole moment (field-independent basis, Debye-Ang**3):
 XXXX=           -234.2935 YYYY=           -541.7785 ZZZZ=            -47.7779 XXXY=              2.3582
 XXXZ=              0.0000 YYYX=              7.5589 YYYZ=             -0.0000 ZZZX=              0.0000
 ZZZY=             -0.0000 XXYY=           -115.2417 XXZZ=            -61.0154 YYZZ=            -96.6270
 XXYZ=             -0.0000 YYXZ=              0.0000 ZZXY=              1.1155
 N-N= 2.768386644497D+02 E-N=-1.308329558930D+03  KE= 3.222654341299D+02
 Symmetry A'   KE= 3.109666170375D+02
 Symmetry A"   KE= 1.129881709247D+01
 No NMR shielding tensors so no spin-rotation constants.
 Leave Link  601 at Fri Aug 27 00:08:32 2021, MaxMem= 17179869184 cpu:        81.8
 (Enter /public3/home/sc51754/softwares/g09e01/l701.exe)
 Compute integral first derivatives.
 ... and contract with generalized density number  0.
 Leave Link  701 at Fri Aug 27 00:08:33 2021, MaxMem= 17179869184 cpu:        52.9
 (Enter /public3/home/sc51754/softwares/g09e01/l702.exe)
 L702 exits ... SP integral derivatives will be done elsewhere.
 Leave Link  702 at Fri Aug 27 00:08:33 2021, MaxMem= 17179869184 cpu:         0.3
 (Enter /public3/home/sc51754/softwares/g09e01/l703.exe)
 Compute integral first derivatives, UseDBF=F ICtDFT=           0.
 Integral derivatives from FoFJK, PRISM(SPDF).
 Calling FoFJK, ICntrl=      2127 FMM=F ISym2X=1 I1Cent= 0 IOpClX= 0 NMat=1 NMatS=1 NMatT=0.
 FoFJK:  IHMeth= 1 ICntrl=    2127 DoSepK=F KAlg= 0 I1Cent=   0 FoldK=F
 IRaf=         0 NMat=   1 IRICut=       1 DoRegI=T DoRafI=F ISym2E= 1.
 FoFCou: FMM=F IPFlag=           0 FMFlag=      100000 FMFlg1=         800
         NFxFlg=           0 DoJE=F BraDBF=F KetDBF=F FulRan=T
         wScrn=  0.000000 ICntrl=    2127 IOpCl=  0 I1Cent=           0 NGrid=           0
         NMat0=    1 NMatS0=      1 NMatT0=    0 NMatD0=    1 NMtDS0=    0 NMtDT0=    0
 Petite list used in FoFCou.
 Leave Link  703 at Fri Aug 27 00:08:35 2021, MaxMem= 17179869184 cpu:       140.8
 (Enter /public3/home/sc51754/softwares/g09e01/l716.exe)
 Dipole        =-4.62767913D-01-1.73133240D+00-5.00807304D-32
 ***** Axes restored to original set *****
 -------------------------------------------------------------------
 Center     Atomic                   Forces (Hartrees/Bohr)
 Number     Number              X              Y              Z
 -------------------------------------------------------------------
      1        8           0.001239540   -0.010800826    0.000000000
      2        7           0.000546237    0.006522711   -0.000000000
      3        6          -0.007594321   -0.000537851   -0.000000000
      4        6           0.004539310    0.000062262    0.000000000
      5        6           0.002110590   -0.000668580    0.000000000
      6        6           0.003302364    0.003587331   -0.000000000
      7        6          -0.005849210   -0.001888206   -0.000000000
      8        1           0.006347007   -0.004462796    0.000000000
      9        1          -0.004944971   -0.003825035   -0.000000000
     10        1           0.005600753    0.003195223    0.000000000
     11        1          -0.005273441    0.003017849   -0.000000000
     12        1          -0.000023858    0.005797918   -0.000000000
 -------------------------------------------------------------------
 Cartesian Forces:  Max     0.010800826 RMS     0.003791295
 Leave Link  716 at Fri Aug 27 00:08:36 2021, MaxMem= 17179869184 cpu:         0.3
 (Enter /public3/home/sc51754/softwares/g09e01/l103.exe)

 GradGradGradGradGradGradGradGradGradGradGradGradGradGradGradGradGradGrad
 Berny optimization.
 FormGI is forming the generalized inverse of G from B-inverse, IUseBI=4.
 Internal  Forces:  Max     0.010871578 RMS     0.003374902
 Search for a local minimum.
 Step number   1 out of a maximum of   64
 All quantities printed in internal units (Hartrees-Bohrs-Radians)
 RMS Force = .33749D-02 SwitMx=.10000D-02 MixMth= 1
 Mixed Optimization -- RFO/linear search
 Second derivative matrix not updated -- first step.
 ITU=  0
     Eigenvalues ---    0.01577   0.01761   0.01972   0.02080   0.02183
     Eigenvalues ---    0.02246   0.02365   0.02483   0.02557   0.16000
     Eigenvalues ---    0.16000   0.16000   0.16000   0.16000   0.22000
     Eigenvalues ---    0.22000   0.23415   0.25000   0.35622   0.35864
     Eigenvalues ---    0.35940   0.36221   0.37867   0.40757   0.44267
     Eigenvalues ---    0.46319   0.50118   0.53776   0.54239   0.98595
 RFO step:  Lambda=-1.28115367D-03 EMin= 1.57720798D-02
 Linear search not attempted -- first point.
 Iteration  1 RMS(Cart)=  0.01054628 RMS(Int)=  0.00001507
 Iteration  2 RMS(Cart)=  0.00002010 RMS(Int)=  0.00000338
 Iteration  3 RMS(Cart)=  0.00000000 RMS(Int)=  0.00000338
 ITry= 1 IFail=0 DXMaxC= 3.35D-02 DCOld= 1.00D+10 DXMaxT= 3.00D-01 DXLimC= 3.00D+00 Rises=F
 ClnCor:  largest displacement from symmetrization is 2.35D-10 for atom    11.
 Variable       Old X    -DE/DX   Delta X   Delta X   Delta X     New X
                                 (Linear)    (Quad)   (Total)
    R1        2.29207  -0.01087   0.00000  -0.01101  -0.01101   2.28106
    R2        2.65138  -0.01068   0.00000  -0.02393  -0.02393   2.62745
    R3        2.56109  -0.00567   0.00000  -0.01093  -0.01093   2.55016
    R4        1.90473  -0.00772   0.00000  -0.01663  -0.01663   1.88810
    R5        2.72731  -0.00288   0.00000  -0.00708  -0.00707   2.72024
    R6        2.55600  -0.00737   0.00000  -0.01307  -0.01307   2.54293
    R7        2.04176  -0.00623   0.00000  -0.01727  -0.01727   2.02449
    R8        2.55244  -0.00768   0.00000  -0.01415  -0.01415   2.53828
    R9        2.04295  -0.00644   0.00000  -0.01790  -0.01790   2.02505
   R10        2.67947  -0.00139   0.00000  -0.00291  -0.00292   2.67655
   R11        2.04676  -0.00607   0.00000  -0.01699  -0.01699   2.02977
   R12        2.03737  -0.00580   0.00000  -0.01595  -0.01595   2.02142
    A1        2.18960  -0.00053   0.00000  -0.00384  -0.00383   2.18576
    A2        1.99125   0.00096   0.00000   0.00622   0.00622   1.99748
    A3        2.10233  -0.00043   0.00000  -0.00239  -0.00239   2.09995
    A4        2.09504  -0.00102   0.00000  -0.00407  -0.00407   2.09097
    A5        2.21834  -0.00119   0.00000  -0.00474  -0.00475   2.21359
    A6        1.96981   0.00222   0.00000   0.00881   0.00882   1.97863
    A7        2.12410  -0.00185   0.00000  -0.00664  -0.00663   2.11747
    A8        2.02595   0.00145   0.00000   0.00660   0.00660   2.03255
    A9        2.13313   0.00039   0.00000   0.00004   0.00004   2.13317
   A10        2.10267   0.00099   0.00000   0.00321   0.00320   2.10587
   A11        2.03035  -0.00080   0.00000  -0.00349  -0.00349   2.02687
   A12        2.15017  -0.00019   0.00000   0.00028   0.00028   2.15045
   A13        2.12246  -0.00037   0.00000   0.00019   0.00018   2.12264
   A14        2.08387   0.00006   0.00000  -0.00086  -0.00085   2.08302
   A15        2.07686   0.00031   0.00000   0.00067   0.00067   2.07753
   A16        2.05775  -0.00046   0.00000  -0.00173  -0.00174   2.05600
   A17        2.10204   0.00028   0.00000   0.00116   0.00116   2.10320
   A18        2.12340   0.00018   0.00000   0.00057   0.00058   2.12398
    D1        3.14159   0.00000   0.00000   0.00000   0.00000   3.14159
    D2       -0.00000  -0.00000   0.00000  -0.00000   0.00000   0.00000
    D3        0.00000   0.00000   0.00000  -0.00000   0.00000   0.00000
    D4        3.14159  -0.00000   0.00000  -0.00000   0.00000   3.14159
    D5        0.00000   0.00000   0.00000  -0.00000   0.00000   0.00000
    D6        3.14159  -0.00000   0.00000  -0.00000   0.00000   3.14159
    D7        3.14159   0.00000   0.00000   0.00000   0.00000   3.14159
    D8       -0.00000   0.00000   0.00000   0.00000   0.00000   0.00000
    D9        3.14159   0.00000   0.00000  -0.00000   0.00000   3.14159
   D10        0.00000   0.00000   0.00000  -0.00000   0.00000   0.00000
   D11        0.00000  -0.00000   0.00000   0.00000  -0.00000   0.00000
   D12        3.14159  -0.00000   0.00000   0.00000   0.00000   3.14159
   D13        0.00000  -0.00000   0.00000   0.00000   0.00000   0.00000
   D14        3.14159  -0.00000   0.00000  -0.00000   0.00000   3.14159
   D15        3.14159   0.00000   0.00000  -0.00000   0.00000   3.14159
   D16       -0.00000  -0.00000   0.00000  -0.00000   0.00000   0.00000
   D17       -0.00000  -0.00000   0.00000   0.00000   0.00000   0.00000
   D18        3.14159   0.00000   0.00000  -0.00000   0.00000   3.14159
   D19        3.14159   0.00000   0.00000   0.00000   0.00000   3.14159
   D20       -0.00000   0.00000   0.00000   0.00000   0.00000   0.00000
   D21        0.00000   0.00000   0.00000  -0.00000   0.00000   0.00000
   D22        3.14159  -0.00000   0.00000   0.00000   0.00000   3.14159
   D23        3.14159   0.00000   0.00000   0.00000   0.00000   3.14159
   D24        0.00000   0.00000   0.00000   0.00000  -0.00000   0.00000
         Item               Value     Threshold  Converged?
 Maximum Force            0.010872     0.000450     NO 
 RMS     Force            0.003375     0.000300     NO 
 Maximum Displacement     0.033471     0.001800     NO 
 RMS     Displacement     0.010550     0.001200     NO 
 Predicted change in Energy=-6.424817D-04
 Lowest energy point so far.  Saving SCF results.
 GradGradGradGradGradGradGradGradGradGradGradGradGradGradGradGradGradGrad

 Leave Link  103 at Fri Aug 27 00:08:36 2021, MaxMem= 17179869184 cpu:        32.6
 (Enter /public3/home/sc51754/softwares/g09e01/l202.exe)
                          Input orientation:                          
 ---------------------------------------------------------------------
 Center     Atomic      Atomic             Coordinates (Angstroms)
 Number     Number       Type             X           Y           Z
 ---------------------------------------------------------------------
      1          8           0       -0.133701    2.250184   -0.000000
      2          7           0       -1.127103    0.232332   -0.000000
      3          6           0       -0.002727    1.050227   -0.000000
      4          6           0        1.236301    0.317467    0.000000
      5          6           0       -1.108307   -1.117025   -0.000000
      6          6           0        1.253256   -1.028086    0.000000
      7          6           0        0.056585   -1.785768    0.000000
      8          1           0       -1.996537    0.724635   -0.000000
      9          1           0        2.135353    0.900059    0.000000
     10          1           0       -2.063721   -1.602340   -0.000000
     11          1           0        2.196069   -1.542686    0.000000
     12          1           0        0.068635   -2.855390    0.000000
 ---------------------------------------------------------------------
                    Distance matrix (angstroms):
                    1          2          3          4          5
     1  O    0.000000
     2  N    2.249128   0.000000
     3  C    1.207083   1.390386   0.000000
     4  C    2.369030   2.364937   1.439489   0.000000
     5  C    3.505418   1.349487   2.432959   2.748628   0.000000
     6  C    3.559593   2.693466   2.428349   1.345660   2.363236
     7  C    4.040435   2.339625   2.836616   2.411499   1.343202
     8  H    2.407791   0.999139   2.020220   3.258378   2.044667
     9  H    2.640350   3.330087   2.143347   1.071312   3.819681
    10  H    4.308935   2.059921   3.359139   3.817828   1.071610
    11  H    4.451257   3.767513   3.399692   2.093161   3.331679
    12  H    5.109581   3.311164   3.906269   3.380897   2.099310
                    6          7          8          9         10
     6  C    0.000000
     7  C    1.416369   0.000000
     8  H    3.692314   3.243059   0.000000
     9  H    2.120340   3.396313   4.135613   0.000000
    10  H    3.366319   2.128226   2.327944   4.888173   0.000000
    11  H    1.074109   2.153248   4.766413   2.443500   4.260208
    12  H    2.177697   1.069689   4.132978   4.286574   2.473272
                   11         12
    11  H    0.000000
    12  H    2.499833   0.000000
 Stoichiometry    C5H5NO
 Framework group  CS[SG(C5H5NO)]
 Deg. of freedom    21
 Full point group                 CS      NOp   2
 RotChk:  IX=0 Diff= 3.42D-03
 Largest Abelian subgroup         CS      NOp   2
 Largest concise Abelian subgroup C1      NOp   1
                         Standard orientation:                         
 ---------------------------------------------------------------------
 Center     Atomic      Atomic             Coordinates (Angstroms)
 Number     Number       Type             X           Y           Z
 ---------------------------------------------------------------------
      1          8           0       -0.128068    2.253041   -0.000000
      2          7           0       -1.126353    0.237600   -0.000000
      3          6           0       -0.000000    1.052771   -0.000000
      4          6           0        1.237250    0.317013    0.000000
      5          6           0       -1.110825   -1.111798    0.000000
      6          6           0        1.250946   -1.028578    0.000000
      7          6           0        0.052445   -1.783360    0.000000
      8          1           0       -1.994593    0.732007   -0.000000
      9          1           0        2.137710    0.897426    0.000000
     10          1           0       -2.067412   -1.594798   -0.000000
     11          1           0        2.192511   -1.545459    0.000000
     12          1           0        0.061904   -2.853007    0.000000
 ---------------------------------------------------------------------
 Rotational constants (GHZ):      5.7768773      2.8582372      1.9121560
 Leave Link  202 at Fri Aug 27 00:08:37 2021, MaxMem= 17179869184 cpu:         6.6
 (Enter /public3/home/sc51754/softwares/g09e01/l301.exe)
 Basis read from rwf:  (5D, 7F)
 No pseudopotential information found on rwf file.
 There are   223 symmetry adapted cartesian basis functions of A'  symmetry.
 There are    97 symmetry adapted cartesian basis functions of A"  symmetry.
 There are   190 symmetry adapted basis functions of A'  symmetry.
 There are    90 symmetry adapted basis functions of A"  symmetry.
   280 basis functions,   475 primitive gaussians,   320 cartesian basis functions
    25 alpha electrons       25 beta electrons
       nuclear repulsion energy       278.3017073616 Hartrees.
 IExCor=  402 DFT=T Ex+Corr=BHandHLYP ExCW=0 ScaHFX=  0.500000
 ScaDFX=  0.500000  0.500000  1.000000  1.000000 ScalE2=  1.000000  1.000000
 IRadAn=      0 IRanWt=     -1 IRanGd=            0 ICorTp=0 IEmpDi=  4
 NAtoms=   12 NActive=   12 NUniq=   12 SFac= 1.00D+00 NAtFMM=   60 NAOKFM=F Big=F
 Integral buffers will be    131072 words long.
 Raffenetti 2 integral format.
 Two-electron integral symmetry is turned on.
 No density basis found on file   724.
 Leave Link  301 at Fri Aug 27 00:08:37 2021, MaxMem= 17179869184 cpu:         0.9
 (Enter /public3/home/sc51754/softwares/g09e01/l302.exe)
 NPDir=0 NMtPBC=     1 NCelOv=     1 NCel=       1 NClECP=     1 NCelD=      1
         NCelK=      1 NCelE2=     1 NClLst=     1 CellRange=     0.0.
 One-electron integrals computed using PRISM.
 NBasis=   280 RedAO= T EigKep=  2.22D-04  NBF=   190    90
 NBsUse=   280 1.00D-06 EigRej= -1.00D+00 NBFU=   190    90
 Precomputing XC quadrature grid using
 IXCGrd= 4 IRadAn=           0 IRanWt=          -1 IRanGd=           0 AccXCQ= 0.00D+00.
 Generated NRdTot=       0 NPtTot=           0 NUsed=           0 NTot=          32
 NSgBfM=   320   320   320   320   320 MxSgAt=    12 MxSgA2=    12.
 Leave Link  302 at Fri Aug 27 00:08:38 2021, MaxMem= 17179869184 cpu:        43.5
 (Enter /public3/home/sc51754/softwares/g09e01/l303.exe)
 DipDrv:  MaxL=1.
 Leave Link  303 at Fri Aug 27 00:08:38 2021, MaxMem= 17179869184 cpu:        12.0
 (Enter /public3/home/sc51754/softwares/g09e01/l401.exe)
 Initial guess from the checkpoint file:  "PY_BHandHLYP_PC2_OPT_FREQ.chk"
 B after Tr=     0.000000    0.000000   -0.000000
         Rot=    1.000000   -0.000000    0.000000    0.000964 Ang=   0.11 deg.
 Guess basis will be translated and rotated to current coordinates.
 JPrj=2 DoOrth=T DoCkMO=T.
 Initial guess orbital symmetries:
       Occupied  (A') (A') (A') (A') (A') (A') (A') (A') (A') (A')
                 (A') (A') (A') (A') (A') (A') (A') (A") (A') (A')
                 (A') (A") (A") (A') (A")
       Virtual   (A') (A') (A') (A') (A') (A') (A') (A') (A') (A')
                 (A') (A') (A') (A') (A') (A') (A') (A') (A') (A')
                 (A') (A') (A') (A') (A') (A') (A') (A') (A') (A')
                 (A') (A') (A') (A') (A') (A') (A') (A') (A') (A')
                 (A') (A') (A') (A') (A') (A') (A') (A') (A') (A')
                 (A') (A') (A') (A') (A') (A') (A') (A') (A') (A')
                 (A') (A') (A') (A') (A') (A') (A') (A') (A') (A')
                 (A') (A') (A') (A') (A') (A') (A') (A') (A') (A')
                 (A') (A') (A') (A') (A') (A') (A') (A') (A') (A')
                 (A') (A') (A') (A') (A') (A') (A') (A') (A') (A')
                 (A') (A') (A') (A') (A') (A') (A') (A') (A') (A')
                 (A') (A') (A') (A') (A') (A') (A') (A') (A') (A')
                 (A') (A') (A') (A') (A') (A') (A') (A') (A') (A')
                 (A') (A') (A') (A') (A') (A') (A') (A') (A') (A')
                 (A') (A') (A') (A') (A') (A') (A') (A') (A') (A')
                 (A') (A') (A') (A') (A') (A') (A') (A') (A') (A')
                 (A') (A') (A') (A') (A') (A') (A') (A') (A') (A")
                 (A") (A") (A") (A") (A") (A") (A") (A") (A") (A")
                 (A") (A") (A") (A") (A") (A") (A") (A") (A") (A")
                 (A") (A") (A") (A") (A") (A") (A") (A") (A") (A")
                 (A") (A") (A") (A") (A") (A") (A") (A") (A") (A")
                 (A") (A") (A") (A") (A") (A") (A") (A") (A") (A")
                 (A") (A") (A") (A") (A") (A") (A") (A") (A") (A")
                 (A") (A") (A") (A") (A") (A") (A") (A") (A") (A")
                 (A") (A") (A") (A") (A") (A") (A") (A") (A") (A")
                 (A") (A") (A") (A") (A")
 The electronic state of the initial guess is 1-A'.
 Generating alternative initial guess.
 ExpMin= 7.41D-02 ExpMax= 1.48D+04 ExpMxC= 5.05D+02 IAcc=2 IRadAn=         4 AccDes= 0.00D+00
 Harris functional with IExCor=  402 and IRadAn=       4 diagonalized for initial guess.
 HarFok:  IExCor=  402 AccDes= 0.00D+00 IRadAn=         4 IDoV= 1 UseB2=F ITyADJ=14
 ICtDFT=  3500011 ScaDFX=  1.000000  1.000000  1.000000  1.000000
 FoFCou: FMM=F IPFlag=           0 FMFlag=      100000 FMFlg1=           0
         NFxFlg=           0 DoJE=T BraDBF=F KetDBF=T FulRan=T
         wScrn=  0.000000 ICntrl=     500 IOpCl=  0 I1Cent=   200000004 NGrid=           0
         NMat0=    1 NMatS0=      1 NMatT0=    0 NMatD0=    1 NMtDS0=    0 NMtDT0=    0
 Petite list used in FoFCou.
 Harris En= -323.707895734526    
 Leave Link  401 at Fri Aug 27 00:08:40 2021, MaxMem= 17179869184 cpu:        89.0
 (Enter /public3/home/sc51754/softwares/g09e01/l502.exe)
 Closed shell SCF:
 Using DIIS extrapolation, IDIIS=  1040.
 Integral symmetry usage will be decided dynamically.
 Keep R1 ints in memory in symmetry-blocked form, NReq=1167802198.
 IVT=      348658 IEndB=      348658 NGot= 17179869184 MDV= 16785904737
 LenX= 16785904737 LenY= 16785801896
 Requested convergence on RMS density matrix=1.00D-08 within 128 cycles.
 Requested convergence on MAX density matrix=1.00D-06.
 Requested convergence on             energy=1.00D-06.
 No special actions if energy rises.
 FoFCou: FMM=F IPFlag=           0 FMFlag=           0 FMFlg1=           0
         NFxFlg=           0 DoJE=F BraDBF=F KetDBF=F FulRan=T
         wScrn=  0.000000 ICntrl=     600 IOpCl=  0 I1Cent=           0 NGrid=           0
         NMat0=    1 NMatS0=  39340 NMatT0=    0 NMatD0=    1 NMtDS0=    0 NMtDT0=    0
 Petite list used in FoFCou.
 Integral accuracy reduced to 1.0D-05 until final iterations.

 Cycle   1  Pass 0  IDiag  1:
 E= -323.459507670759    
 DIIS: error= 7.47D-04 at cycle   1 NSaved=   1.
 NSaved= 1 IEnMin= 1 EnMin= -323.459507670759     IErMin= 1 ErrMin= 7.47D-04
 ErrMax= 7.47D-04  0.00D+00 EMaxC= 1.00D-01 BMatC= 2.16D-04 BMatP= 2.16D-04
 IDIUse=3 WtCom= 9.93D-01 WtEn= 7.47D-03
 Coeff-Com:  0.100D+01
 Coeff-En:   0.100D+01
 Coeff:      0.100D+01
 Gap=     0.651 Goal=   None    Shift=    0.000
 RMSDP=5.11D-05 MaxDP=1.38D-03              OVMax= 3.13D-03

 Cycle   2  Pass 0  IDiag  1:
 E= -323.459678982705     Delta-E=       -0.000171311946 Rises=F Damp=F
 DIIS: error= 3.77D-04 at cycle   2 NSaved=   2.
 NSaved= 2 IEnMin= 2 EnMin= -323.459678982705     IErMin= 2 ErrMin= 3.77D-04
 ErrMax= 3.77D-04  0.00D+00 EMaxC= 1.00D-01 BMatC= 2.25D-05 BMatP= 2.16D-04
 IDIUse=3 WtCom= 9.96D-01 WtEn= 3.77D-03
 Coeff-Com:  0.142D+00 0.858D+00
 Coeff-En:   0.000D+00 0.100D+01
 Coeff:      0.141D+00 0.859D+00
 Gap=     0.262 Goal=   None    Shift=    0.000
 RMSDP=2.16D-05 MaxDP=1.46D-03 DE=-1.71D-04 OVMax= 1.74D-03

 Cycle   3  Pass 0  IDiag  1:
 E= -323.459686292742     Delta-E=       -0.000007310037 Rises=F Damp=F
 DIIS: error= 2.37D-04 at cycle   3 NSaved=   3.
 NSaved= 3 IEnMin= 3 EnMin= -323.459686292742     IErMin= 3 ErrMin= 2.37D-04
 ErrMax= 2.37D-04  0.00D+00 EMaxC= 1.00D-01 BMatC= 1.60D-05 BMatP= 2.25D-05
 IDIUse=3 WtCom= 9.98D-01 WtEn= 2.37D-03
 Coeff-Com: -0.610D-02 0.454D+00 0.552D+00
 Coeff-En:   0.000D+00 0.383D+00 0.617D+00
 Coeff:     -0.608D-02 0.454D+00 0.552D+00
 Gap=     0.262 Goal=   None    Shift=    0.000
 RMSDP=1.04D-05 MaxDP=5.40D-04 DE=-7.31D-06 OVMax= 1.38D-03

 Cycle   4  Pass 0  IDiag  1:
 E= -323.459699252849     Delta-E=       -0.000012960107 Rises=F Damp=F
 DIIS: error= 5.57D-05 at cycle   4 NSaved=   4.
 NSaved= 4 IEnMin= 4 EnMin= -323.459699252849     IErMin= 4 ErrMin= 5.57D-05
 ErrMax= 5.57D-05  0.00D+00 EMaxC= 1.00D-01 BMatC= 1.08D-06 BMatP= 1.60D-05
 IDIUse=1 WtCom= 1.00D+00 WtEn= 0.00D+00
 Coeff-Com: -0.144D-01 0.136D+00 0.267D+00 0.612D+00
 Coeff:     -0.144D-01 0.136D+00 0.267D+00 0.612D+00
 Gap=     0.262 Goal=   None    Shift=    0.000
 RMSDP=2.86D-06 MaxDP=1.35D-04 DE=-1.30D-05 OVMax= 2.49D-04

 Initial convergence to 1.0D-05 achieved.  Increase integral accuracy.
 Cycle   5  Pass 1  IDiag  1:
 E= -323.459683902300     Delta-E=        0.000015350548 Rises=F Damp=F
 DIIS: error= 2.50D-05 at cycle   1 NSaved=   1.
 NSaved= 1 IEnMin= 1 EnMin= -323.459683902300     IErMin= 1 ErrMin= 2.50D-05
 ErrMax= 2.50D-05  0.00D+00 EMaxC= 1.00D-01 BMatC= 1.14D-07 BMatP= 1.14D-07
 IDIUse=1 WtCom= 1.00D+00 WtEn= 0.00D+00
 Coeff-Com:  0.100D+01
 Coeff:      0.100D+01
 Gap=     0.262 Goal=   None    Shift=    0.000
 RMSDP=2.86D-06 MaxDP=1.35D-04 DE= 1.54D-05 OVMax= 2.06D-04

 Cycle   6  Pass 1  IDiag  1:
 E= -323.459684011067     Delta-E=       -0.000000108766 Rises=F Damp=F
 DIIS: error= 1.43D-05 at cycle   2 NSaved=   2.
 NSaved= 2 IEnMin= 2 EnMin= -323.459684011067     IErMin= 2 ErrMin= 1.43D-05
 ErrMax= 1.43D-05  0.00D+00 EMaxC= 1.00D-01 BMatC= 5.75D-08 BMatP= 1.14D-07
 IDIUse=1 WtCom= 1.00D+00 WtEn= 0.00D+00
 Coeff-Com:  0.389D+00 0.611D+00
 Coeff:      0.389D+00 0.611D+00
 Gap=     0.262 Goal=   None    Shift=    0.000
 RMSDP=8.25D-07 MaxDP=3.66D-05 DE=-1.09D-07 OVMax= 6.49D-05

 Cycle   7  Pass 1  IDiag  1:
 E= -323.459684053522     Delta-E=       -0.000000042456 Rises=F Damp=F
 DIIS: error= 5.48D-06 at cycle   3 NSaved=   3.
 NSaved= 3 IEnMin= 3 EnMin= -323.459684053522     IErMin= 3 ErrMin= 5.48D-06
 ErrMax= 5.48D-06  0.00D+00 EMaxC= 1.00D-01 BMatC= 6.26D-09 BMatP= 5.75D-08
 IDIUse=1 WtCom= 1.00D+00 WtEn= 0.00D+00
 Coeff-Com: -0.257D-01 0.215D+00 0.811D+00
 Coeff:     -0.257D-01 0.215D+00 0.811D+00
 Gap=     0.262 Goal=   None    Shift=    0.000
 RMSDP=3.78D-07 MaxDP=1.65D-05 DE=-4.25D-08 OVMax= 5.10D-05

 Cycle   8  Pass 1  IDiag  1:
 E= -323.459684059335     Delta-E=       -0.000000005813 Rises=F Damp=F
 DIIS: error= 2.05D-06 at cycle   4 NSaved=   4.
 NSaved= 4 IEnMin= 4 EnMin= -323.459684059335     IErMin= 4 ErrMin= 2.05D-06
 ErrMax= 2.05D-06  0.00D+00 EMaxC= 1.00D-01 BMatC= 1.34D-09 BMatP= 6.26D-09
 IDIUse=1 WtCom= 1.00D+00 WtEn= 0.00D+00
 Coeff-Com: -0.413D-01 0.624D-01 0.420D+00 0.559D+00
 Coeff:     -0.413D-01 0.624D-01 0.420D+00 0.559D+00
 Gap=     0.262 Goal=   None    Shift=    0.000
 RMSDP=1.16D-07 MaxDP=3.31D-06 DE=-5.81D-09 OVMax= 1.22D-05

 Cycle   9  Pass 1  IDiag  1:
 E= -323.459684060708     Delta-E=       -0.000000001374 Rises=F Damp=F
 DIIS: error= 7.08D-07 at cycle   5 NSaved=   5.
 NSaved= 5 IEnMin= 5 EnMin= -323.459684060708     IErMin= 5 ErrMin= 7.08D-07
 ErrMax= 7.08D-07  0.00D+00 EMaxC= 1.00D-01 BMatC= 5.65D-11 BMatP= 1.34D-09
 IDIUse=1 WtCom= 1.00D+00 WtEn= 0.00D+00
 Coeff-Com: -0.162D-02-0.192D-01-0.527D-01 0.717D-01 0.100D+01
 Coeff:     -0.162D-02-0.192D-01-0.527D-01 0.717D-01 0.100D+01
 Gap=     0.262 Goal=   None    Shift=    0.000
 RMSDP=6.24D-08 MaxDP=2.57D-06 DE=-1.37D-09 OVMax= 1.45D-05

 Cycle  10  Pass 1  IDiag  1:
 E= -323.459684060901     Delta-E=       -0.000000000193 Rises=F Damp=F
 DIIS: error= 3.57D-07 at cycle   6 NSaved=   6.
 NSaved= 6 IEnMin= 6 EnMin= -323.459684060901     IErMin= 6 ErrMin= 3.57D-07
 ErrMax= 3.57D-07  0.00D+00 EMaxC= 1.00D-01 BMatC= 4.13D-11 BMatP= 5.65D-11
 IDIUse=1 WtCom= 1.00D+00 WtEn= 0.00D+00
 Coeff-Com:  0.674D-02-0.255D-01-0.119D+00-0.827D-01 0.572D+00 0.649D+00
 Coeff:      0.674D-02-0.255D-01-0.119D+00-0.827D-01 0.572D+00 0.649D+00
 Gap=     0.262 Goal=   None    Shift=    0.000
 RMSDP=2.79D-08 MaxDP=1.30D-06 DE=-1.93D-10 OVMax= 3.78D-06

 Cycle  11  Pass 1  IDiag  1:
 E= -323.459684060943     Delta-E=       -0.000000000042 Rises=F Damp=F
 DIIS: error= 9.47D-08 at cycle   7 NSaved=   7.
 NSaved= 7 IEnMin= 7 EnMin= -323.459684060943     IErMin= 7 ErrMin= 9.47D-08
 ErrMax= 9.47D-08  0.00D+00 EMaxC= 1.00D-01 BMatC= 8.71D-13 BMatP= 4.13D-11
 IDIUse=1 WtCom= 1.00D+00 WtEn= 0.00D+00
 Coeff-Com:  0.192D-02-0.478D-02-0.254D-01-0.273D-01 0.818D-01 0.144D+00
 Coeff-Com:  0.830D+00
 Coeff:      0.192D-02-0.478D-02-0.254D-01-0.273D-01 0.818D-01 0.144D+00
 Coeff:      0.830D+00
 Gap=     0.262 Goal=   None    Shift=    0.000
 RMSDP=6.82D-09 MaxDP=2.07D-07 DE=-4.23D-11 OVMax= 1.37D-06

 SCF Done:  E(RBHandHLYP) =  -323.459684061     A.U. after   11 cycles
            NFock= 11  Conv=0.68D-08     -V/T= 2.0031
 KE= 3.224669189890D+02 PE=-1.311414327781D+03 EE= 3.871860173694D+02
 Leave Link  502 at Fri Aug 27 00:08:45 2021, MaxMem= 17179869184 cpu:       208.8
 (Enter /public3/home/sc51754/softwares/g09e01/l701.exe)
 Compute integral first derivatives.
 ... and contract with generalized density number  0.
 Leave Link  701 at Fri Aug 27 00:08:47 2021, MaxMem= 17179869184 cpu:        73.6
 (Enter /public3/home/sc51754/softwares/g09e01/l702.exe)
 L702 exits ... SP integral derivatives will be done elsewhere.
 Leave Link  702 at Fri Aug 27 00:08:47 2021, MaxMem= 17179869184 cpu:         0.3
 (Enter /public3/home/sc51754/softwares/g09e01/l703.exe)
 Compute integral first derivatives, UseDBF=F ICtDFT=           0.
[...]
     35  0.000000D+00 -0.366318D-03 -0.389932D-03  0.000000D+00  0.253322D-03
     36 -0.309143D-01  0.000000D+00  0.000000D+00  0.184447D-02  0.000000D+00
               26            27            28            29            30 
     26  0.154305D+00
     27  0.000000D+00  0.261686D-01
     28 -0.915857D-04  0.000000D+00  0.318516D+00
     29  0.107292D-03  0.000000D+00  0.128440D+00  0.132165D+00
     30  0.000000D+00 -0.122248D-02  0.000000D+00  0.000000D+00  0.272641D-01
     31  0.219095D-03  0.000000D+00 -0.960373D-03  0.851539D-03  0.000000D+00
     32  0.125283D-02  0.000000D+00 -0.870751D-03  0.583126D-03  0.000000D+00
     33  0.000000D+00 -0.675227D-02  0.000000D+00  0.000000D+00 -0.487870D-03
     34 -0.133124D-02  0.000000D+00  0.921670D-03 -0.549036D-03  0.000000D+00
     35 -0.529032D-03  0.000000D+00  0.282567D-03  0.622515D-03  0.000000D+00
     36  0.000000D+00  0.516109D-03  0.000000D+00  0.000000D+00 -0.570546D-02
               31            32            33            34            35 
     31  0.304764D+00
     32 -0.132207D+00  0.135352D+00
     33  0.000000D+00  0.000000D+00  0.295449D-01
     34  0.110904D-02  0.955867D-03  0.000000D+00  0.607458D-01
     35 -0.253510D-03  0.688406D-03  0.000000D+00 -0.516889D-02  0.387901D+00
     36  0.000000D+00  0.000000D+00 -0.211000D-02  0.000000D+00  0.000000D+00
               36 
     36  0.250947D-01
 FormGI is forming the generalized inverse of G from B-inverse, IUseBI=4.
 Leave Link  716 at Fri Aug 27 00:09:53 2021, MaxMem= 17179869184 cpu:        20.7
 (Enter /public3/home/sc51754/softwares/g09e01/l103.exe)

 GradGradGradGradGradGradGradGradGradGradGradGradGradGradGradGradGradGrad
 Berny optimization.
 Red2BG is reusing G-inverse.
 Internal  Forces:  Max     0.000148492 RMS     0.000040041
 Search for a local minimum.
 Step number   1 out of a maximum of    2
 All quantities printed in internal units (Hartrees-Bohrs-Radians)
 Second derivative matrix not updated -- analytic derivatives used.
 ITU=  0
     Eigenvalues ---    0.00870   0.01191   0.01654   0.01887   0.02096
     Eigenvalues ---    0.02402   0.02892   0.03523   0.05195   0.10898
     Eigenvalues ---    0.11470   0.11838   0.12864   0.13473   0.18107
     Eigenvalues ---    0.21054   0.21619   0.24723   0.33302   0.34111
     Eigenvalues ---    0.37761   0.38431   0.38659   0.38921   0.40282
     Eigenvalues ---    0.44111   0.49649   0.55480   0.58377   0.86629
 Angle between quadratic step and forces=  36.11 degrees.
 Linear search not attempted -- first point.
 Iteration  1 RMS(Cart)=  0.00021230 RMS(Int)=  0.00000006
 Iteration  2 RMS(Cart)=  0.00000006 RMS(Int)=  0.00000000
 ITry= 1 IFail=0 DXMaxC= 8.68D-04 DCOld= 1.00D+10 DXMaxT= 3.00D-01 DXLimC= 3.00D+00 Rises=F
 ClnCor:  largest displacement from symmetrization is 1.70D-12 for atom    11.
 Variable       Old X    -DE/DX   Delta X   Delta X   Delta X     New X
                                 (Linear)    (Quad)   (Total)
    R1        2.28287   0.00005   0.00000   0.00007   0.00007   2.28294
    R2        2.62086   0.00000   0.00000  -0.00008  -0.00008   2.62078
    R3        2.55458   0.00015   0.00000   0.00047   0.00047   2.55506
    R4        1.88858  -0.00003   0.00000  -0.00008  -0.00008   1.88850
    R5        2.72636  -0.00007   0.00000  -0.00010  -0.00010   2.72626
    R6        2.54272  -0.00010   0.00000  -0.00026  -0.00026   2.54246
    R7        2.02492   0.00000   0.00000   0.00002   0.00002   2.02494
    R8        2.53735  -0.00014   0.00000  -0.00032  -0.00032   2.53703
    R9        2.02628  -0.00004   0.00000  -0.00012  -0.00012   2.02616
   R10        2.68182  -0.00004   0.00000  -0.00002  -0.00002   2.68180
   R11        2.03077  -0.00003   0.00000  -0.00008  -0.00008   2.03069
   R12        2.02210   0.00001   0.00000   0.00004   0.00004   2.02214
    A1        2.18591  -0.00003   0.00000  -0.00014  -0.00014   2.18577
    A2        1.99970   0.00003   0.00000   0.00027   0.00027   1.99997
    A3        2.09757  -0.00000   0.00000  -0.00013  -0.00013   2.09745
    A4        2.09705   0.00002   0.00000   0.00013   0.00013   2.09719
    A5        2.20682  -0.00001   0.00000  -0.00022  -0.00022   2.20661
    A6        1.97931  -0.00001   0.00000   0.00008   0.00008   1.97939
    A7        2.11759   0.00003   0.00000   0.00009   0.00009   2.11768
    A8        2.03187  -0.00009   0.00000  -0.00070  -0.00070   2.03117
    A9        2.13373   0.00006   0.00000   0.00061   0.00061   2.13434
   A10        2.10682  -0.00004   0.00000  -0.00016  -0.00016   2.10667
   A11        2.02617  -0.00001   0.00000  -0.00027  -0.00027   2.02590
   A12        2.15019   0.00005   0.00000   0.00043   0.00043   2.15062
   A13        2.12114   0.00001   0.00000  -0.00012  -0.00012   2.12102
   A14        2.08559   0.00002   0.00000   0.00030   0.00030   2.08589
   A15        2.07645  -0.00003   0.00000  -0.00018  -0.00018   2.07628
   A16        2.05560   0.00004   0.00000   0.00025   0.00025   2.05585
   A17        2.10511  -0.00002   0.00000  -0.00010  -0.00010   2.10501
   A18        2.12248  -0.00002   0.00000  -0.00015  -0.00015   2.12233
    D1        3.14159   0.00000   0.00000   0.00000   0.00000   3.14159
    D2        0.00000  -0.00000   0.00000   0.00000  -0.00000   0.00000
    D3       -0.00000  -0.00000   0.00000   0.00000   0.00000   0.00000
    D4        3.14159  -0.00000   0.00000   0.00000   0.00000   3.14159
    D5       -0.00000   0.00000   0.00000  -0.00000   0.00000   0.00000
    D6        3.14159  -0.00000   0.00000  -0.00000   0.00000   3.14159
    D7        3.14159   0.00000   0.00000  -0.00000   0.00000   3.14159
    D8       -0.00000  -0.00000   0.00000  -0.00000   0.00000   0.00000
    D9        3.14159  -0.00000   0.00000  -0.00000   0.00000   3.14159
   D10       -0.00000  -0.00000   0.00000  -0.00000   0.00000   0.00000
   D11        0.00000   0.00000   0.00000  -0.00000   0.00000   0.00000
   D12        3.14159   0.00000   0.00000  -0.00000   0.00000   3.14159
   D13       -0.00000   0.00000   0.00000   0.00000   0.00000   0.00000
   D14        3.14159  -0.00000   0.00000   0.00000   0.00000   3.14159
   D15        3.14159  -0.00000   0.00000   0.00000   0.00000   3.14159
   D16        0.00000  -0.00000   0.00000  -0.00000   0.00000   0.00000
   D17       -0.00000  -0.00000   0.00000   0.00000   0.00000   0.00000
   D18        3.14159   0.00000   0.00000  -0.00000   0.00000   3.14159
   D19        3.14159   0.00000   0.00000   0.00000   0.00000   3.14159
   D20        0.00000   0.00000   0.00000  -0.00000  -0.00000   0.00000
   D21        0.00000   0.00000   0.00000  -0.00000  -0.00000   0.00000
   D22        3.14159  -0.00000   0.00000   0.00000   0.00000   3.14159
   D23        3.14159  -0.00000   0.00000   0.00000   0.00000   3.14159
   D24        0.00000  -0.00000   0.00000   0.00000  -0.00000   0.00000
         Item               Value     Threshold  Converged?
 Maximum Force            0.000148     0.000450     YES
 RMS     Force            0.000040     0.000300     YES
 Maximum Displacement     0.000868     0.001800     YES
 RMS     Displacement     0.000212     0.001200     YES
 Predicted change in Energy=-1.688640D-07
 Optimization completed.
    -- Stationary point found.
                           ----------------------------
                           !   Optimized Parameters   !
                           ! (Angstroms and Degrees)  !
 --------------------------                            --------------------------
 ! Name  Definition              Value          Derivative Info.                !
 --------------------------------------------------------------------------------
 ! R1    R(1,3)                  1.208          -DE/DX =    0.0                 !
 ! R2    R(2,3)                  1.3869         -DE/DX =    0.0                 !
 ! R3    R(2,5)                  1.3518         -DE/DX =    0.0001              !
 ! R4    R(2,8)                  0.9994         -DE/DX =    0.0                 !
 ! R5    R(3,4)                  1.4427         -DE/DX =   -0.0001              !
 ! R6    R(4,6)                  1.3455         -DE/DX =   -0.0001              !
 ! R7    R(4,9)                  1.0715         -DE/DX =    0.0                 !
 ! R8    R(5,7)                  1.3427         -DE/DX =   -0.0001              !
 ! R9    R(5,10)                 1.0723         -DE/DX =    0.0                 !
 ! R10   R(6,7)                  1.4192         -DE/DX =    0.0                 !
 ! R11   R(6,11)                 1.0746         -DE/DX =    0.0                 !
 ! R12   R(7,12)                 1.07           -DE/DX =    0.0                 !
 ! A1    A(3,2,5)              125.2434         -DE/DX =    0.0                 !
 ! A2    A(3,2,8)              114.5745         -DE/DX =    0.0                 !
 ! A3    A(5,2,8)              120.1821         -DE/DX =    0.0                 !
 ! A4    A(1,3,2)              120.1522         -DE/DX =    0.0                 !
 ! A5    A(1,3,4)              126.4416         -DE/DX =    0.0                 !
 ! A6    A(2,3,4)              113.4062         -DE/DX =    0.0                 !
 ! A7    A(3,4,6)              121.3287         -DE/DX =    0.0                 !
 ! A8    A(3,4,9)              116.4177         -DE/DX =   -0.0001              !
 ! A9    A(6,4,9)              122.2536         -DE/DX =    0.0001              !
 ! A10   A(2,5,7)              120.7121         -DE/DX =    0.0                 !
 ! A11   A(2,5,10)             116.0908         -DE/DX =    0.0                 !
 ! A12   A(7,5,10)             123.197          -DE/DX =    0.0001              !
 ! A13   A(4,6,7)              121.5324         -DE/DX =    0.0                 !
 ! A14   A(4,6,11)             119.4958         -DE/DX =    0.0                 !
 ! A15   A(7,6,11)             118.9719         -DE/DX =    0.0                 !
 ! A16   A(5,7,6)              117.7771         -DE/DX =    0.0                 !
 ! A17   A(5,7,12)             120.6139         -DE/DX =    0.0                 !
 ! A18   A(6,7,12)             121.6089         -DE/DX =    0.0                 !
 ! D1    D(5,2,3,1)            180.0            -DE/DX =    0.0                 !
 ! D2    D(5,2,3,4)              0.0            -DE/DX =    0.0                 !
 ! D3    D(8,2,3,1)              0.0            -DE/DX =    0.0                 !
 ! D4    D(8,2,3,4)            180.0            -DE/DX =    0.0                 !
 ! D5    D(3,2,5,7)              0.0            -DE/DX =    0.0                 !
 ! D6    D(3,2,5,10)           180.0            -DE/DX =    0.0                 !
 ! D7    D(8,2,5,7)            180.0            -DE/DX =    0.0                 !
 ! D8    D(8,2,5,10)             0.0            -DE/DX =    0.0                 !
 ! D9    D(1,3,4,6)            180.0            -DE/DX =    0.0                 !
 ! D10   D(1,3,4,9)              0.0            -DE/DX =    0.0                 !
 ! D11   D(2,3,4,6)              0.0            -DE/DX =    0.0                 !
 ! D12   D(2,3,4,9)            180.0            -DE/DX =    0.0                 !
 ! D13   D(3,4,6,7)              0.0            -DE/DX =    0.0                 !
 ! D14   D(3,4,6,11)           180.0            -DE/DX =    0.0                 !
 ! D15   D(9,4,6,7)            180.0            -DE/DX =    0.0                 !
 ! D16   D(9,4,6,11)             0.0            -DE/DX =    0.0                 !
 ! D17   D(2,5,7,6)              0.0            -DE/DX =    0.0                 !
 ! D18   D(2,5,7,12)           180.0            -DE/DX =    0.0                 !
 ! D19   D(10,5,7,6)           180.0            -DE/DX =    0.0                 !
 ! D20   D(10,5,7,12)            0.0            -DE/DX =    0.0                 !
 ! D21   D(4,6,7,5)              0.0            -DE/DX =    0.0                 !
 ! D22   D(4,6,7,12)           180.0            -DE/DX =    0.0                 !
 ! D23   D(11,6,7,5)           180.0            -DE/DX =    0.0                 !
 ! D24   D(11,6,7,12)            0.0            -DE/DX =    0.0                 !
 --------------------------------------------------------------------------------
 GradGradGradGradGradGradGradGradGradGradGradGradGradGradGradGradGradGrad

 Leave Link  103 at Fri Aug 27 00:09:54 2021, MaxMem= 17179869184 cpu:        47.2
 (Enter /public3/home/sc51754/softwares/g09e01/l9999.exe)
 1\1\GINC-S2515\Freq\RBHandHLYP\Gen\C5H5N1O1\SC51754\27-Aug-2021\0\\#P 
 Geom=AllCheck Guess=TCheck SCRF=Check GenChk RBHandHLYP/ChkBas Freq\\P
 Y_BHandHLYP_PC2_OPT_FREQ\\0,1\O,-0.1303228974,2.2520639059,0.\N,-1.127
 3408652,0.234153899,0.\C,-0.0060935335,1.0504230571,0.\C,1.2365039995,
 0.3173342829,0.\C,-1.1082008726,-1.1175369778,0.\C,1.2550462092,-1.028
 0866588,0.\C,0.0557763693,-1.7868774549,0.\H,-1.9982739168,0.724315527
 1,0.\H,2.1347352274,0.9016154701,0.\H,-2.0644229344,-1.6027000871,0.\H
 ,2.1976038625,-1.5442538965,0.\H,0.0690923519,-2.8568430669,0.\\Versio
 n=EM64L-G09RevE.01\State=1-A'\HF=-323.4597106\RMSD=1.557e-09\RMSF=7.97
 9e-05\ZeroPoint=0.0971675\Thermal=0.1022497\Dipole=-0.4622807,-1.72440
 53,0.\DipoleDeriv=-0.4756923,0.2643504,0.,0.0594623,-1.9212171,0.,0.,0
 .,-0.4584265,-0.3870008,-0.5445328,0.,0.4264485,-0.8561611,0.,0.,0.,-0
 .2546505,0.4997606,-0.200438,0.,-0.0257129,2.3474583,0.,0.,0.,0.316436
 6,-0.0741757,0.5488415,0.,-0.061892,-0.6557426,0.,0.,0.,-0.1947886,0.3
 73176,-0.0219708,0.,-0.6759098,0.4642842,0.,0.,0.,0.0021047,0.4368335,
 0.2457788,0.,0.195495,0.5292009,0.,0.,0.,-0.0660686,-0.643539,-0.22560
 56,0.,0.1389036,-0.1418956,0.,0.,0.,-0.2333279,0.2501294,-0.0372748,0.
 ,-0.0311575,0.1491312,0.,0.,0.,0.2874369,0.0056037,-0.0296103,0.,-0.04
 19446,0.0367009,0.,0.,0.,0.1564279,-0.0070257,-0.0465851,0.,-0.0317921
 ,0.0403568,0.,0.,0.,0.1450171,-0.0425941,0.0665536,0.,0.0638891,0.0495
 884,0.,0.,0.,0.1264396,0.0645245,-0.0195069,0.,-0.0157897,-0.0417044,0
 .,0.,0.,0.1733993\Polar=69.5218745,-0.1491497,85.4862203,0.,0.,37.2139
 019\PG=CS [SG(C5H5N1O1)]\NImag=0\\0.10646619,-0.06451269,0.82711644,0.
 ,0.,0.03733398,0.01328989,-0.04814434,0.,0.81273601,-0.07708146,-0.083
 06910,0.,-0.11179514,0.81469312,0.,0.,0.02175365,0.,0.,0.08175133,-0.1
 1906281,0.07873915,0.,-0.23701781,0.01943035,0.,0.60262966,0.07411310,
 -0.68406140,0.,-0.03016005,-0.15633886,0.,-0.09642378,0.99150298,0.,0.
 ,-0.08247874,0.,0.,-0.06750112,0.,0.,0.22284539,0.00350575,0.03208314,
 0.,-0.04377522,-0.01532136,0.,-0.23237928,0.04755333,0.,0.69062773,0.0
 5728228,-0.06029048,0.,-0.01074625,0.05239587,0.,0.02316365,-0.1304435
 0,0.,0.07702909,0.84062833,0.,0.,0.02460686,0.,0.,0.00778330,0.,0.,-0.
 08694765,0.,0.,0.12727412,-0.01131649,-0.00107222,0.,-0.16046090,-0.02
 662863,0.,0.04081552,-0.02815794,0.,-0.01581391,0.02390075,0.,0.894694
 46,0.01824143,-0.00314768,0.,0.02994032,-0.34570106,0.,-0.08906421,-0.
 02801745,0.,0.02321386,-0.04010015,0.,-0.01945020,0.71601461,0.,0.,0.0
 0555012,0.,0.,-0.04955241,0.,0.,-0.00343907,0.,0.,0.00049686,0.,0.,0.1
 5376656,-0.01582737,0.01131194,0.,-0.00631962,-0.03811448,0.,0.0457040
 2,0.03192778,0.,-0.14801242,0.03158617,0.,-0.06530329,0.02093219,0.,0.
 71547818,-0.00789064,0.01607086,0.,-0.00301925,-0.04317987,0.,0.052969
 79,-0.03066492,0.,-0.01711174,-0.47163021,0.,-0.02235479,0.06034966,0.
 ,-0.05668749,0.80419115,0.,0.,0.00414941,0.,0.,-0.00610800,0.,0.,0.000
 26338,0.,0.,-0.06122423,0.,0.,0.00844153,0.,0.,0.15671633,0.01332905,-
 0.01169245,0.,0.01150296,0.07670095,0.,-0.05858326,0.00265503,0.,0.029
 84679,-0.06001465,0.,-0.38415281,0.10682617,0.,-0.24355523,-0.04306752
 ,0.,0.72211736,-0.00332918,-0.00656523,0.,0.03870983,-0.04971258,0.,0.
 01289598,0.00793478,0.,-0.03519986,-0.02696391,0.,0.15818156,-0.209385
 10,0.,-0.09890916,-0.17947676,0.,-0.07323819,0.81623541,0.,0.,-0.00014
 650,0.,0.,0.01393630,0.,0.,-0.00813237,0.,0.,0.00832326,0.,0.,-0.07049
 191,0.,0.,-0.06690096,0.,0.,0.12575332,0.00557617,0.00115841,0.,-0.386
 12528,0.16596349,0.,-0.02528975,0.02014780,0.,-0.00400357,-0.00369656,
 0.,0.00813782,-0.00024156,0.,-0.00133129,-0.00277927,0.,0.00474778,-0.
 00286210,0.,0.39793631,0.00501205,-0.00238474,0.,0.16560851,-0.1685536
 3,0.,-0.02020427,0.02287202,0.,-0.00331001,-0.00355989,0.,0.03507055,-
 0.01288180,0.,-0.00004702,0.00061126,0.,-0.00394845,-0.00604974,0.,-0.
 17792552,0.16867841,0.,0.,-0.00509783,0.,0.,-0.01740289,0.,0.,0.003692
 10,0.,0.,0.00459561,0.,0.,-0.00567324,0.,0.,-0.00050776,0.,0.,0.004891
 14,0.,0.,0.01734970,0.00341736,0.00157338,0.,-0.00553253,0.00284640,0.
 ,-0.01802949,-0.02151889,0.,-0.27949931,-0.13629627,0.,-0.00014250,0.0
 0258695,0.,0.00676803,0.00294638,0.,0.00241262,0.00103534,0.,-0.001013
 06,-0.00104211,0.,0.29046704,-0.00206395,0.00075976,0.,0.00429194,-0.0
 0107388,0.,0.01510663,0.01244139,0.,-0.13836860,-0.14900644,0.,0.00066
 957,-0.00124349,0.,-0.02964198,-0.01277167,0.,0.00205041,-0.00493650,0
 .,0.00089197,0.00069488,0.,0.14826774,0.15430485,0.,0.,-0.00240061,0.,
 0.,0.00454252,0.,0.,0.00317787,0.,0.,-0.03694463,0.,0.,-0.00070509,0.,
 0.,0.00372019,0.,0.,0.01033936,0.,0.,-0.00043956,0.,0.,0.02616861,-0.0
 0012896,-0.00004591,0.,0.00611172,0.00205890,0.,0.00203292,0.00167030,
 0.,0.00055539,0.00065848,0.,-0.30788047,-0.12000718,0.,-0.00366502,0.0
 0430882,0.,-0.01649660,-0.01585069,0.,0.00098842,-0.00055314,0.,0.0000
 0543,-0.00009159,0.,0.31851588,-0.00185768,-0.00298030,0.,-0.03809542,
 -0.02078100,0.,0.00700900,-0.00087498,0.,-0.00011804,0.00008124,0.,-0.
 11319210,-0.12248617,0.,0.00311364,-0.00180010,0.,0.01483614,0.0144301
 0,0.,-0.00030813,0.00093343,0.,-0.00013010,0.00010729,0.,0.12844018,0.
 13216484,0.,0.,-0.00012867,0.,0.,0.00309454,0.,0.,0.00528239,0.,0.,-0.
 00016334,0.,0.,-0.04266952,0.,0.,0.00901308,0.,0.,0.00826357,0.,0.,-0.
 00254038,0.,0.,-0.00122248,0.,0.,0.02726415,-0.00004459,0.00060959,0.,
 0.00116943,-0.00046764,0.,0.00134945,-0.00168792,0.,0.00407946,-0.0009
 3226,0.,-0.00404506,-0.00435617,0.,-0.29027209,0.12247570,0.,-0.018120
 62,0.01572416,0.,0.00004124,0.00002425,0.,0.00093039,0.00021909,0.,-0.
 00096037,0.00085154,0.,0.30476372,0.00197148,-0.00140063,0.,0.00038895
 ,-0.00029813,0.,-0.00316855,-0.00491830,0.,0.03237042,-0.01151415,0.,-
 0.00392167,-0.00163435,0.,0.12138702,-0.13146839,0.,-0.01640158,0.0133
 2805,0.,0.00001778,0.00002973,0.,-0.00052215,0.00125283,0.,-0.00087075
 ,0.00058313,0.,-0.13220682,0.13535181,0.,0.,-0.00267764,0.,0.,-0.00083
 356,0.,0.,0.01356693,0.,0.,0.00840098,0.,0.,0.00454115,0.,0.,-0.047560
 40,0.,0.,0.00507911,0.,0.,-0.00071137,0.,0.,-0.00675227,0.,0.,-0.00048
 787,0.,0.,0.02954493,0.00079581,-0.00000800,0.,-0.00557864,0.00240862,
 0.,-0.00216917,-0.00011876,0.,-0.00513141,-0.00193442,0.,0.00546762,0.
 03137839,0.,0.00633610,-0.02979000,0.,-0.06304802,0.00284231,0.,0.0003
 3520,0.00131516,0.,0.00021601,-0.00133124,0.,0.00092167,-0.00054904,0.
 ,0.00110904,0.00095587,0.,0.06074580,0.00011526,-0.00004750,0.,0.00302
 090,0.00161912,0.,-0.00045374,0.00056822,0.,-0.00282023,0.00040327,0.,
 -0.00304488,-0.01176701,0.,0.00314139,-0.01023101,0.,0.00529414,-0.368
 83854,0.,-0.00036632,-0.00038993,0.,0.00025332,-0.00052903,0.,0.000282
 57,0.00062251,0.,-0.00025351,0.00068841,0.,-0.00516889,0.38790149,0.,0
 .,-0.00046403,0.,0.,0.00853634,0.,0.,-0.00032910,0.,0.,0.00379886,0.,0
 .,-0.00026498,0.,0.,-0.00000257,0.,0.,-0.03091433,0.,0.,0.00184447,0.,
 0.,0.00051611,0.,0.,-0.00570546,0.,0.,-0.00211000,0.,0.,0.02509469\\-0
 .00000877,-0.00004636,0.,0.00003304,-0.00018461,0.,-0.00007966,0.00005
 816,0.,0.00003669,0.00015082,0.,-0.00007455,0.00032537,0.,-0.00000168,
 -0.00007396,0.,0.00006246,-0.00016219,0.,-0.00001846,0.00003209,0.,0.0
 0003784,-0.00006342,0.,-0.00002278,-0.00004725,0.,0.00003521,0.0000030
 7,0.,0.00000065,0.00000828,0.\\\@


 MAN IS THE MEASURE OF ALL THINGS.
  -- PROTAGORAS (5TH CENTURY B.C.)
 Job cpu time:       0 days  0 hours 35 minutes 42.6 seconds.
 File lengths (MBytes):  RWF=     80 Int=      0 D2E=      0 Chk=      7 Scr=      1
 Normal termination of Gaussian 09 at Fri Aug 27 00:09:54 2021.
