 Entering Gaussian System, Link 0=g09
 AtFile(1): pc-2.gbs
            -H     0
            S    4   1.00
                  0.754230D+02           0.240650D-02
                  0.113500D+02           0.184870D-01
                  0.259930D+01           0.897420D-01
                  0.735130D+00           0.281110D+00
            S    1   1.00
                  0.231670D+00           0.100000D+01
            S    1   1.00
                  0.741470D-01           0.100000D+01
            P    1   1.00
                  0.160000D+01           0.100000D+01
            P    1   1.00
                  0.450000D+00           0.100000D+01
            D    1   1.00
                  0.125000D+01           0.100000D+01
            ****
            -C     0
            S    7   1.00
                  0.785710D+04           0.568250D-03
                  0.117870D+04           0.439150D-02
                  0.268320D+03           0.225040D-01
                  0.759480D+02           0.866530D-01
                  0.245590D+02           0.244050D+00
                  0.862120D+01           0.441480D+00
                  0.312780D+01           0.353320D+00
            S    7   1.00
                  0.117870D+04          -0.594920D-06
                  0.268320D+03          -0.627480D-04
                  0.759480D+02          -0.757730D-03
                  0.245590D+02          -0.733080D-02
                  0.862120D+01          -0.389320D-01
                  0.312780D+01          -0.889080D-01
                  0.822020D+00           0.216890D+00
            S    1   1.00
                  0.330170D+00           0.100000D+01
            S    1   1.00
                  0.114630D+00           0.100000D+01
            P    4   1.00
                  0.337750D+02           0.602940D-02
                  0.767660D+01           0.432280D-01
                  0.223570D+01           0.163010D+00
                  0.764470D+00           0.365040D+00
            P    1   1.00
                  0.262320D+00           0.100000D+01
            P    1   1.00
                  0.846380D-01           0.100000D+01
            D    1   1.00
                  0.140000D+01           0.100000D+01
            D    1   1.00
                  0.450000D+00           0.100000D+01
            F    1   1.00
                  0.950000D+00           0.100000D+01
            ****
            -N     0
            S    7   1.00
                  0.111010D+05           0.545700D-03
                  0.166530D+04           0.421810D-02
                  0.379080D+03           0.216450D-01
                  0.107300D+03           0.837760D-01
                  0.347470D+02           0.238810D+00
                  0.122490D+02           0.439940D+00
                  0.447430D+01           0.363640D+00
            S    7   1.00
                  0.166530D+04          -0.150060D-05
                  0.379080D+03          -0.587530D-04
                  0.107300D+03          -0.774530D-03
                  0.347470D+02          -0.721610D-02
                  0.122490D+02          -0.393380D-01
                  0.447430D+01          -0.906110D-01
                  0.124040D+01           0.198820D+00
            S    1   1.00
                  0.487430D+00           0.100000D+01
            S    1   1.00
                  0.164840D+00           0.100000D+01
            P    4   1.00
                  0.479340D+02           0.617060D-02
                  0.109990D+02           0.442600D-01
                  0.324720D+01           0.168250D+00
                  0.111140D+01           0.368480D+00
            P    1   1.00
                  0.379880D+00           0.100000D+01
            P    1   1.00
                  0.120680D+00           0.100000D+01
            D    1   1.00
                  0.180000D+01           0.100000D+01
            D    1   1.00
                  0.550000D+00           0.100000D+01
            F    1   1.00
                  0.102000D+01           0.100000D+01
            ****
            -O     0
            S    7   1.00
                  0.147820D+05           0.535190D-03
                  0.221730D+04           0.413750D-02
                  0.504740D+03           0.212450D-01
                  0.142870D+03           0.824530D-01
                  0.463000D+02           0.236710D+00
                  0.163370D+02           0.440390D+00
                  0.598280D+01           0.364650D+00
            S    7   1.00
                  0.221730D+04          -0.192750D-05
                  0.504740D+03          -0.579640D-04
                  0.142870D+03          -0.794940D-03
                  0.463000D+02          -0.731250D-02
                  0.163370D+02          -0.405740D-01
                  0.598280D+01          -0.915940D-01
                  0.167180D+01           0.209400D+00
            S    1   1.00
                  0.646620D+00           0.100000D+01
            S    1   1.00
                  0.216690D+00           0.100000D+01
            P    4   1.00
                  0.604240D+02           0.689490D-02
                  0.139350D+02           0.490050D-01
                  0.415310D+01           0.182550D+00
                  0.141580D+01           0.376330D+00
            P    1   1.00
                  0.475490D+00           0.100000D+01
            P    1   1.00
                  0.145290D+00           0.100000D+01
            D    1   1.00
                  0.220000D+01           0.100000D+01
            D    1   1.00
                  0.650000D+00           0.100000D+01
            F    1   1.00
                  0.110000D+01           0.100000D+01
            ****
 Initial command:
 /public3/home/sc51754/softwares/g09e01/l1.exe "./Gau-10805.inp" -scrdir="./"
 Entering Link 1 = /public3/home/sc51754/softwares/g09e01/l1.exe PID=     10806.
  
 Copyright (c) 1988,1990,1992,1993,1995,1998,2003,2009,2015,
            Gaussian, Inc.  All Rights Reserved.
  
 This is part of the Gaussian(R) 09 program.  It is based on
 the Gaussian(R) 03 system (copyright 2003, Gaussian, Inc.),
 the Gaussian(R) 98 system (copyright 1998, Gaussian, Inc.),
 the Gaussian(R) 94 system (copyright 1995, Gaussian, Inc.),
 the Gaussian 92(TM) system (copyright 1992, Gaussian, Inc.),
 the Gaussian 90(TM) system (copyright 1990, Gaussian, Inc.),
 the Gaussian 88(TM) system (copyright 1988, Gaussian, Inc.),
 the Gaussian 86(TM) system (copyright 1986, Carnegie Mellon
 University), and the Gaussian 82(TM) system (copyright 1983,
 Carnegie Mellon University). Gaussian is a federally registered
 trademark of Gaussian, Inc.
  
 This software contains proprietary and confidential information,
 including trade secrets, belonging to Gaussian, Inc.
  
 This software is provided under written license and may be
 used, copied, transmitted, or stored only in accord with that
 written license.
  
 The following legend is applicable only to US Government
 contracts under FAR:
  
                    RESTRICTED RIGHTS LEGEND
  
 Use, reproduction and disclosure by the US Government is
 subject to restrictions as set forth in subparagraphs (a)
 and (c) of the Commercial Computer Software - Restricted
 Rights clause in FAR 52.227-19.
  
 Gaussian, Inc.
 340 Quinnipiac St., Bldg. 40, Wallingford CT 06492
  
  
 ---------------------------------------------------------------
 Warning -- This program may not be used in any manner that
 competes with the business of Gaussian, Inc. or will provide
 assistance to any competitor of Gaussian, Inc.  The licensee
 of this program is prohibited from giving any competitor of
 Gaussian, Inc. access to this program.  By using this program,
 the user acknowledges that Gaussian, Inc. is engaged in the
 business of creating and licensing software in the field of
 computational chemistry and represents and warrants to the
 licensee that it is not a competitor of Gaussian, Inc. and that
 it will not use this program in any manner prohibited above.
 ---------------------------------------------------------------
  

 Cite this work as:
 Gaussian 09, Revision E.01,
 M. J. Frisch, G. W. Trucks, H. B. Schlegel, G. E. Scuseria, 
 M. A. Robb, J. R. Cheeseman, G. Scalmani, V. Barone, B. Mennucci, 
 G. A. Petersson, H. Nakatsuji, M. Caricato, X. Li, H. P. Hratchian, 
 A. F. Izmaylov, J. Bloino, G. Zheng, J. L. Sonnenberg, M. Hada, 
 M. Ehara, K. Toyota, R. Fukuda, J. Hasegawa, M. Ishida, T. Nakajima, 
 Y. Honda, O. Kitao, H. Nakai, T. Vreven, J. A. Montgomery, Jr., 
 J. E. Peralta, F. Ogliaro, M. Bearpark, J. J. Heyd, E. Brothers, 
 K. N. Kudin, V. N. Staroverov, T. Keith, R. Kobayashi, J. Normand, 
 K. Raghavachari, A. Rendell, J. C. Burant, S. S. Iyengar, J. Tomasi, 
 M. Cossi, N. Rega, J. M. Millam, M. Klene, J. E. Knox, J. B. Cross, 
 V. Bakken, C. Adamo, J. Jaramillo, R. Gomperts, R. E. Stratmann, 
 O. Yazyev, A. J. Austin, R. Cammi, C. Pomelli, J. W. Ochterski, 
 R. L. Martin, K. Morokuma, V. G. Zakrzewski, G. A. Voth, 
 P. Salvador, J. J. Dannenberg, S. Dapprich, A. D. Daniels, 
 O. Farkas, J. B. Foresman, J. V. Ortiz, J. Cioslowski, 
 and D. J. Fox, Gaussian, Inc., Wallingford CT, 2013.
 
 ******************************************
 Gaussian 09:  EM64L-G09RevE.01 30-Nov-2015
                28-Aug-2021 
 ******************************************
 %nprocshared=64
 Will use up to   64 processors via shared memory.
 %mem=128GB
 %chk=TST_GAS_BHandHLYP.chk
 ----------------------------------------------------
 #p opt=(calcfc,qst3,MaxCycle=200) freq BHandHLYP/gen
 ----------------------------------------------------
 1/5=1,6=200,10=4,14=-1,18=20,26=3,27=203,38=1/1,3;
 2/9=110,12=2,17=6,18=5,40=1/2;
 3/5=7,11=2,16=1,25=1,30=1,71=2,74=-3,140=1/1,2,3;
 4//1;
 5/5=2,38=5/2;
 8/6=4,10=90,11=11/1;
 11/6=1,8=1,9=11,15=111,16=1/1,2,10;
 10/6=1,13=1/2;
 6/7=2,8=2,9=2,10=2,28=1/1;
 7/10=1,18=20,25=1/1,2,3,16;
 1/5=1,6=200,10=4,14=-1,18=20,26=3,27=203/3(2);
 2/9=110/2;
 99//99;
 2/9=110/2;
 3/5=7,6=1,11=2,16=1,25=1,30=1,71=1,74=-3,82=7/1,2,3;
 4/5=5,16=3,69=1/1;
 5/5=2,38=5/2;
 7//1,2,3,16;
 1/5=1,6=200,14=-1,18=20,26=3,27=203/3(-5);
 2/9=110/2;
 6/7=2,8=2,9=2,10=2,19=2,28=1/1;
 99/9=1/99;
 Leave Link    1 at Sat Aug 28 00:50:25 2021, MaxMem= 17179869184 cpu:         7.0
 (Enter /public3/home/sc51754/softwares/g09e01/l101.exe)
 -------------------------
 HY_BHandHLYP_PC2_OPT_FREQ
 -------------------------
 Symbolic Z-matrix:
 Charge =  0 Multiplicity = 1
 O                     0.00863   2.23255   0. 
 N                    -1.16354   0.29495   0. 
 C                     0.        0.89488   0. 
 C                     1.21496   0.22306   0. 
 C                    -1.18127  -1.03098   0. 
 C                     1.17853  -1.14694   0. 
 C                    -0.04405  -1.80006   0. 
 H                    -0.89839   2.52557   0. 
 H                     2.13291   0.77588   0. 
 H                    -2.15408  -1.48855   0. 
 H                     2.09447  -1.70759   0. 
 H                    -0.10821  -2.87003   0. 
 
 -------------------------
 PY_BHandHLYP_PC2_OPT_FREQ
 -------------------------
 Symbolic Z-matrix:
 Charge =  0 Multiplicity = 1
 O                    -0.1172    2.255     0. 
 N                    -1.126     0.24295   0. 
 C                     0.        1.05266   0. 
 C                     1.23829   0.31232   0. 
 C                    -1.11476  -1.10882   0. 
 C                     1.24897  -1.03319   0. 
 C                     0.04529  -1.78496   0. 
 H                    -1.99405   0.7382    0. 
 H                     2.13992   0.89134   0. 
 H                    -2.0738   -1.58839   0. 
 H                     2.18849  -1.55486   0. 
 H                     0.05235  -2.85498   0. 
 
 -----------------
 TST_GAS_BHandHLYP
 -----------------
 Symbolic Z-matrix:
 Charge =  0 Multiplicity = 1
 O                     0.26268   2.57047   0. 
 N                    -0.90948   0.63286   0. 
 C                     0.25406   1.23279   0. 
 C                     1.46902   0.56097   0. 
 C                    -0.92721  -0.69306   0. 
 C                     1.43259  -0.80902   0. 
 C                     0.21001  -1.46214   0. 
 H                    -1.15245   2.18765   0. 
 H                     2.38696   1.1138    0. 
 H                    -1.90002  -1.15064   0. 
 H                     2.34852  -1.36967   0. 
 H                     0.14585  -2.53211   0. 
 
 NAtoms=     12 NQM=       12 NQMF=       0 NMMI=      0 NMMIF=      0
                NMic=       0 NMicF=      0.
                    Isotopes and Nuclear Properties:
 (Nuclear quadrupole moments (NQMom) in fm**2, nuclear magnetic moments (NMagM)
  in nuclear magnetons)

  Atom         1           2           3           4           5           6           7           8           9          10
 IAtWgt=          16          14          12          12          12          12          12           1           1           1
 AtmWgt=  15.9949146  14.0030740  12.0000000  12.0000000  12.0000000  12.0000000  12.0000000   1.0078250   1.0078250   1.0078250
 NucSpn=           0           2           0           0           0           0           0           1           1           1
 AtZEff=   0.0000000   0.0000000   0.0000000   0.0000000   0.0000000   0.0000000   0.0000000   0.0000000   0.0000000   0.0000000
 NQMom=    0.0000000   2.0440000   0.0000000   0.0000000   0.0000000   0.0000000   0.0000000   0.0000000   0.0000000   0.0000000
 NMagM=    0.0000000   0.4037610   0.0000000   0.0000000   0.0000000   0.0000000   0.0000000   2.7928460   2.7928460   2.7928460
 AtZNuc=   8.0000000   7.0000000   6.0000000   6.0000000   6.0000000   6.0000000   6.0000000   1.0000000   1.0000000   1.0000000

  Atom        11          12
 IAtWgt=           1           1
 AtmWgt=   1.0078250   1.0078250
 NucSpn=           1           1
 AtZEff=   0.0000000   0.0000000
 NQMom=    0.0000000   0.0000000
 NMagM=    2.7928460   2.7928460
 AtZNuc=   1.0000000   1.0000000
 Leave Link  101 at Sat Aug 28 00:50:29 2021, MaxMem= 17179869184 cpu:        29.1
 (Enter /public3/home/sc51754/softwares/g09e01/l103.exe)

 GradGradGradGradGradGradGradGradGradGradGradGradGradGradGradGradGradGrad
 Berny optimization.
 Initialization pass.
                           ----------------------------
                           !    Initial Parameters    !
                           ! (Angstroms and Degrees)  !
 --------------------------                            --------------------------
 ! Name  Definition        TS        Reactant  Product Derivative Info.         !
 --------------------------------------------------------------------------------
 ! R1    R(1,3)             1.3377    1.3377    1.208  calculate D2E/DX2 analyti!
 ! R2    R(1,8)             1.466     0.9532    2.4131 calculate D2E/DX2 analyti!
 ! R3    R(2,3)             1.3091    1.3091    1.3869 calculate D2E/DX2 analyti!
 ! R4    R(2,5)             1.326     1.326     1.3518 calculate D2E/DX2 analyti!
 ! R5    R(2,8)             1.5737    2.2463    0.9994 calculate D2E/DX2 analyti!
 ! R6    R(3,4)             1.3883    1.3883    1.4427 calculate D2E/DX2 analyti!
 ! R7    R(4,6)             1.3705    1.3705    1.3455 calculate D2E/DX2 analyti!
 ! R8    R(4,9)             1.0716    1.0716    1.0715 calculate D2E/DX2 analyti!
 ! R9    R(5,7)             1.3729    1.3729    1.3427 calculate D2E/DX2 analyti!
 ! R10   R(5,10)            1.0751    1.0751    1.0723 calculate D2E/DX2 analyti!
 ! R11   R(6,7)             1.3861    1.3861    1.4192 calculate D2E/DX2 analyti!
 ! R12   R(6,11)            1.0739    1.0739    1.0746 calculate D2E/DX2 analyti!
 ! R13   R(7,12)            1.0719    1.0719    1.07   calculate D2E/DX2 analyti!
 ! A1    A(3,1,8)          74.4931  107.5336   56.6236 calculate D2E/DX2 analyti!
 ! A2    A(3,2,5)         118.0421  118.0421  125.2434 calculate D2E/DX2 analyti!
 ! A3    A(3,2,8)          71.6057   55.9452  114.5745 calculate D2E/DX2 analyti!
 ! A4    A(5,2,8)         170.3522  173.9873  120.1821 calculate D2E/DX2 analyti!
 ! A5    A(1,3,2)         117.6456  117.6456  120.1522 calculate D2E/DX2 analyti!
 ! A6    A(1,3,4)         118.5712  118.5712  126.4416 calculate D2E/DX2 analyti!
 ! A7    A(2,3,4)         123.7832  123.7832  113.4062 calculate D2E/DX2 analyti!
 ! A8    A(3,4,6)         117.4176  117.4176  121.3287 calculate D2E/DX2 analyti!
 ! A9    A(3,4,9)         120.0012  120.0012  116.4177 calculate D2E/DX2 analyti!
 ! A10   A(6,4,9)         122.5812  122.5812  122.2536 calculate D2E/DX2 analyti!
 ! A11   A(2,5,7)         123.304   123.304   120.7122 calculate D2E/DX2 analyti!
 ! A12   A(2,5,10)        115.9566  115.9566  116.0908 calculate D2E/DX2 analyti!
 ! A13   A(7,5,10)        120.7394  120.7394  123.197  calculate D2E/DX2 analyti!
 ! A14   A(4,6,7)         119.6349  119.6349  121.5324 calculate D2E/DX2 analyti!
 ! A15   A(4,6,11)        119.9478  119.9478  119.4957 calculate D2E/DX2 analyti!
 ! A16   A(7,6,11)        120.4172  120.4172  118.9719 calculate D2E/DX2 analyti!
 ! A17   A(5,7,6)         117.8182  117.8182  117.7771 calculate D2E/DX2 analyti!
 ! A18   A(5,7,12)        120.6385  120.6385  120.6139 calculate D2E/DX2 analyti!
 ! A19   A(6,7,12)        121.5433  121.5433  121.6089 calculate D2E/DX2 analyti!
 ! D1    D(8,1,3,2)         0.0       0.0       0.0    calculate D2E/DX2 analyti!
 ! D2    D(8,1,3,4)       180.0     180.0     180.0    calculate D2E/DX2 analyti!
 ! D3    D(5,2,3,1)       180.0     180.0     180.0    calculate D2E/DX2 analyti!
 ! D4    D(5,2,3,4)         0.0       0.0       0.0    calculate D2E/DX2 analyti!
 ! D5    D(8,2,3,1)         0.0       0.0       0.0    calculate D2E/DX2 analyti!
 ! D6    D(8,2,3,4)       180.0     180.0     180.0    calculate D2E/DX2 analyti!
 ! D7    D(3,2,5,7)         0.0       0.0       0.0    calculate D2E/DX2 analyti!
 ! D8    D(3,2,5,10)      180.0     180.0     180.0    calculate D2E/DX2 analyti!
 ! D9    D(8,2,5,7)       180.0       0.0     180.0    calculate D2E/DX2 analyti!
 ! D10   D(8,2,5,10)        0.0     180.0       0.0    calculate D2E/DX2 analyti!
 ! D11   D(1,3,4,6)       180.0     180.0     180.0    calculate D2E/DX2 analyti!
 ! D12   D(1,3,4,9)         0.0       0.0       0.0    calculate D2E/DX2 analyti!
 ! D13   D(2,3,4,6)         0.0       0.0       0.0    calculate D2E/DX2 analyti!
 ! D14   D(2,3,4,9)       180.0     180.0     180.0    calculate D2E/DX2 analyti!
 ! D15   D(3,4,6,7)         0.0       0.0       0.0    calculate D2E/DX2 analyti!
 ! D16   D(3,4,6,11)      180.0     180.0     180.0    calculate D2E/DX2 analyti!
 ! D17   D(9,4,6,7)       180.0     180.0     180.0    calculate D2E/DX2 analyti!
 ! D18   D(9,4,6,11)        0.0       0.0       0.0    calculate D2E/DX2 analyti!
 ! D19   D(2,5,7,6)         0.0       0.0       0.0    calculate D2E/DX2 analyti!
 ! D20   D(2,5,7,12)      180.0     180.0     180.0    calculate D2E/DX2 analyti!
 ! D21   D(10,5,7,6)      180.0     180.0     180.0    calculate D2E/DX2 analyti!
 ! D22   D(10,5,7,12)       0.0       0.0       0.0    calculate D2E/DX2 analyti!
 ! D23   D(4,6,7,5)         0.0       0.0       0.0    calculate D2E/DX2 analyti!
 ! D24   D(4,6,7,12)      180.0     180.0     180.0    calculate D2E/DX2 analyti!
 ! D25   D(11,6,7,5)      180.0     180.0     180.0    calculate D2E/DX2 analyti!
 ! D26   D(11,6,7,12)       0.0       0.0       0.0    calculate D2E/DX2 analyti!
 --------------------------------------------------------------------------------
 Trust Radius=3.00D-01 FncErr=1.00D-07 GrdErr=1.00D-06
 Number of steps in this run=    100 maximum allowed number of steps=    100.
 Search for a saddle point of order  1.
 GradGradGradGradGradGradGradGradGradGradGradGradGradGradGradGradGradGrad

 Leave Link  103 at Sat Aug 28 00:50:29 2021, MaxMem= 17179869184 cpu:         2.3
 (Enter /public3/home/sc51754/softwares/g09e01/l202.exe)
                          Input orientation:                          
 ---------------------------------------------------------------------
 Center     Atomic      Atomic             Coordinates (Angstroms)
 Number     Number       Type             X           Y           Z
 ---------------------------------------------------------------------
      1          8           0        0.262683    2.570470    0.000000
      2          7           0       -0.909482    0.632863    0.000000
      3          6           0        0.254056    1.232794    0.000000
      4          6           0        1.469016    0.560973    0.000000
      5          6           0       -0.927210   -0.693059    0.000000
      6          6           0        1.432587   -0.809024    0.000000
      7          6           0        0.210007   -1.462144    0.000000
      8          1           0       -1.152448    2.187648    0.000000
      9          1           0        2.386964    1.113798    0.000000
     10          1           0       -1.900023   -1.150635    0.000000
     11          1           0        2.348524   -1.369673    0.000000
     12          1           0        0.145849   -2.532114    0.000000
 ---------------------------------------------------------------------
                    Distance matrix (angstroms):
                    1          2          3          4          5
     1  O    0.000000
     2  N    2.264573   0.000000
     3  C    1.337704   1.309098   0.000000
     4  C    2.343783   2.379584   1.388334   0.000000
     5  C    3.473682   1.326041   2.259270   2.704532   0.000000
     6  C    3.576263   2.750332   2.357532   1.370481   2.362645
     7  C    4.032958   2.375355   2.695298   2.382878   1.372864
     8  H    1.465997   1.573655   1.700000   3.085149   2.889499
     9  H    2.575745   3.331344   2.136225   1.071561   3.774716
    10  H    4.303942   2.040107   3.212599   3.778892   1.075054
    11  H    4.458190   3.824232   3.340603   2.121539   3.344883
    12  H    5.103921   3.336286   3.766463   3.364217   2.129220
                    6          7          8          9         10
     6  C    0.000000
     7  C    1.386098   0.000000
     8  H    3.957581   3.895801   0.000000
     9  H    2.146644   3.372628   3.698728   0.000000
    10  H    3.350073   2.132900   3.420965   4.848290   0.000000
    11  H    1.073903   2.140515   4.991126   2.483768   4.254190
    12  H    2.150519   1.071892   4.895072   4.279634   2.468618
                   11         12
    11  H    0.000000
    12  H    2.490592   0.000000
 Stoichiometry    C5H5NO
 Framework group  CS[SG(C5H5NO)]
 Deg. of freedom    21
 Full point group                 CS      NOp   2
 Largest Abelian subgroup         CS      NOp   2
 Largest concise Abelian subgroup C1      NOp   1
                         Standard orientation:                         
 ---------------------------------------------------------------------
 Center     Atomic      Atomic             Coordinates (Angstroms)
 Number     Number       Type             X           Y           Z
 ---------------------------------------------------------------------
      1          8           0       -0.006337    2.246138    0.000000
      2          7           0       -1.156754    0.295540   -0.000000
      3          6           0       -0.000000    0.908450    0.000000
      4          6           0        1.222399    0.250261    0.000000
      5          6           0       -1.159649   -1.030497   -0.000000
      6          6           0        1.201298   -1.120057    0.000000
      7          6           0       -0.013900   -1.786813   -0.000000
      8          1           0       -1.417097    1.847511    0.000000
      9          1           0        2.134106    0.813320    0.000000
     10          1           0       -2.127283   -1.498926   -0.000000
     11          1           0        2.123449   -1.670425    0.000000
     12          1           0       -0.066085   -2.857433   -0.000000
 ---------------------------------------------------------------------
 Rotational constants (GHZ):      5.8986125      2.8690704      1.9302175
 Leave Link  202 at Sat Aug 28 00:50:30 2021, MaxMem= 17179869184 cpu:        14.8
 (Enter /public3/home/sc51754/softwares/g09e01/l301.exe)
 General basis read from cards:  (5D, 7F)
 Centers:       8      9     10     11     12
 S 4 1.00
     Exponent=  7.5423000000D+01 Coefficients=  2.4065000000D-03
     Exponent=  1.1350000000D+01 Coefficients=  1.8487000000D-02
     Exponent=  2.5993000000D+00 Coefficients=  8.9742000000D-02
     Exponent=  7.3513000000D-01 Coefficients=  2.8111000000D-01
 S 1 1.00
     Exponent=  2.3167000000D-01 Coefficients=  1.0000000000D+00
 S 1 1.00
     Exponent=  7.4147000000D-02 Coefficients=  1.0000000000D+00
 P 1 1.00
     Exponent=  1.6000000000D+00 Coefficients=  1.0000000000D+00
 P 1 1.00
     Exponent=  4.5000000000D-01 Coefficients=  1.0000000000D+00
 D 1 1.00
     Exponent=  1.2500000000D+00 Coefficients=  1.0000000000D+00
 ****
 Centers:       3      4      5      6      7
 S 7 1.00
     Exponent=  7.8571000000D+03 Coefficients=  5.6825000000D-04
     Exponent=  1.1787000000D+03 Coefficients=  4.3915000000D-03
     Exponent=  2.6832000000D+02 Coefficients=  2.2504000000D-02
     Exponent=  7.5948000000D+01 Coefficients=  8.6653000000D-02
     Exponent=  2.4559000000D+01 Coefficients=  2.4405000000D-01
     Exponent=  8.6212000000D+00 Coefficients=  4.4148000000D-01
     Exponent=  3.1278000000D+00 Coefficients=  3.5332000000D-01
 S 7 1.00
     Exponent=  1.1787000000D+03 Coefficients= -5.9492000000D-07
     Exponent=  2.6832000000D+02 Coefficients= -6.2748000000D-05
     Exponent=  7.5948000000D+01 Coefficients= -7.5773000000D-04
     Exponent=  2.4559000000D+01 Coefficients= -7.3308000000D-03
     Exponent=  8.6212000000D+00 Coefficients= -3.8932000000D-02
     Exponent=  3.1278000000D+00 Coefficients= -8.8908000000D-02
     Exponent=  8.2202000000D-01 Coefficients=  2.1689000000D-01
 S 1 1.00
     Exponent=  3.3017000000D-01 Coefficients=  1.0000000000D+00
 S 1 1.00
     Exponent=  1.1463000000D-01 Coefficients=  1.0000000000D+00
 P 4 1.00
     Exponent=  3.3775000000D+01 Coefficients=  6.0294000000D-03
     Exponent=  7.6766000000D+00 Coefficients=  4.3228000000D-02
     Exponent=  2.2357000000D+00 Coefficients=  1.6301000000D-01
     Exponent=  7.6447000000D-01 Coefficients=  3.6504000000D-01
 P 1 1.00
     Exponent=  2.6232000000D-01 Coefficients=  1.0000000000D+00
 P 1 1.00
     Exponent=  8.4638000000D-02 Coefficients=  1.0000000000D+00
 D 1 1.00
     Exponent=  1.4000000000D+00 Coefficients=  1.0000000000D+00
 D 1 1.00
     Exponent=  4.5000000000D-01 Coefficients=  1.0000000000D+00
 F 1 1.00
     Exponent=  9.5000000000D-01 Coefficients=  1.0000000000D+00
 ****
 Centers:       2
 S 7 1.00
     Exponent=  1.1101000000D+04 Coefficients=  5.4570000000D-04
     Exponent=  1.6653000000D+03 Coefficients=  4.2181000000D-03
     Exponent=  3.7908000000D+02 Coefficients=  2.1645000000D-02
     Exponent=  1.0730000000D+02 Coefficients=  8.3776000000D-02
     Exponent=  3.4747000000D+01 Coefficients=  2.3881000000D-01
     Exponent=  1.2249000000D+01 Coefficients=  4.3994000000D-01
     Exponent=  4.4743000000D+00 Coefficients=  3.6364000000D-01
 S 7 1.00
     Exponent=  1.6653000000D+03 Coefficients= -1.5006000000D-06
     Exponent=  3.7908000000D+02 Coefficients= -5.8753000000D-05
     Exponent=  1.0730000000D+02 Coefficients= -7.7453000000D-04
     Exponent=  3.4747000000D+01 Coefficients= -7.2161000000D-03
     Exponent=  1.2249000000D+01 Coefficients= -3.9338000000D-02
     Exponent=  4.4743000000D+00 Coefficients= -9.0611000000D-02
     Exponent=  1.2404000000D+00 Coefficients=  1.9882000000D-01
 S 1 1.00
     Exponent=  4.8743000000D-01 Coefficients=  1.0000000000D+00
 S 1 1.00
     Exponent=  1.6484000000D-01 Coefficients=  1.0000000000D+00
 P 4 1.00
     Exponent=  4.7934000000D+01 Coefficients=  6.1706000000D-03
     Exponent=  1.0999000000D+01 Coefficients=  4.4260000000D-02
     Exponent=  3.2472000000D+00 Coefficients=  1.6825000000D-01
     Exponent=  1.1114000000D+00 Coefficients=  3.6848000000D-01
 P 1 1.00
     Exponent=  3.7988000000D-01 Coefficients=  1.0000000000D+00
 P 1 1.00
     Exponent=  1.2068000000D-01 Coefficients=  1.0000000000D+00
 D 1 1.00
     Exponent=  1.8000000000D+00 Coefficients=  1.0000000000D+00
 D 1 1.00
     Exponent=  5.5000000000D-01 Coefficients=  1.0000000000D+00
 F 1 1.00
     Exponent=  1.0200000000D+00 Coefficients=  1.0000000000D+00
 ****
 Centers:       1
 S 7 1.00
     Exponent=  1.4782000000D+04 Coefficients=  5.3519000000D-04
     Exponent=  2.2173000000D+03 Coefficients=  4.1375000000D-03
     Exponent=  5.0474000000D+02 Coefficients=  2.1245000000D-02
     Exponent=  1.4287000000D+02 Coefficients=  8.2453000000D-02
     Exponent=  4.6300000000D+01 Coefficients=  2.3671000000D-01
     Exponent=  1.6337000000D+01 Coefficients=  4.4039000000D-01
     Exponent=  5.9828000000D+00 Coefficients=  3.6465000000D-01
 S 7 1.00
     Exponent=  2.2173000000D+03 Coefficients= -1.9275000000D-06
     Exponent=  5.0474000000D+02 Coefficients= -5.7964000000D-05
     Exponent=  1.4287000000D+02 Coefficients= -7.9494000000D-04
     Exponent=  4.6300000000D+01 Coefficients= -7.3125000000D-03
     Exponent=  1.6337000000D+01 Coefficients= -4.0574000000D-02
     Exponent=  5.9828000000D+00 Coefficients= -9.1594000000D-02
     Exponent=  1.6718000000D+00 Coefficients=  2.0940000000D-01
 S 1 1.00
     Exponent=  6.4662000000D-01 Coefficients=  1.0000000000D+00
 S 1 1.00
     Exponent=  2.1669000000D-01 Coefficients=  1.0000000000D+00
 P 4 1.00
     Exponent=  6.0424000000D+01 Coefficients=  6.8949000000D-03
     Exponent=  1.3935000000D+01 Coefficients=  4.9005000000D-02
     Exponent=  4.1531000000D+00 Coefficients=  1.8255000000D-01
     Exponent=  1.4158000000D+00 Coefficients=  3.7633000000D-01
 P 1 1.00
     Exponent=  4.7549000000D-01 Coefficients=  1.0000000000D+00
 P 1 1.00
     Exponent=  1.4529000000D-01 Coefficients=  1.0000000000D+00
 D 1 1.00
     Exponent=  2.2000000000D+00 Coefficients=  1.0000000000D+00
 D 1 1.00
     Exponent=  6.5000000000D-01 Coefficients=  1.0000000000D+00
 F 1 1.00
     Exponent=  1.1000000000D+00 Coefficients=  1.0000000000D+00
 ****
 Ernie: Thresh=  0.10000D-02 Tol=  0.10000D-05 Strict=F.
 Ernie:  7 primitive shells out of 220 were deleted.
 There are   223 symmetry adapted cartesian basis functions of A'  symmetry.
 There are    97 symmetry adapted cartesian basis functions of A"  symmetry.
 There are   190 symmetry adapted basis functions of A'  symmetry.
 There are    90 symmetry adapted basis functions of A"  symmetry.
   280 basis functions,   475 primitive gaussians,   320 cartesian basis functions
    25 alpha electrons       25 beta electrons
       nuclear repulsion energy       278.3237987339 Hartrees.
 IExCor=  402 DFT=T Ex+Corr=BHandHLYP ExCW=0 ScaHFX=  0.500000
 ScaDFX=  0.500000  0.500000  1.000000  1.000000 ScalE2=  1.000000  1.000000
 IRadAn=      0 IRanWt=     -1 IRanGd=            0 ICorTp=0 IEmpDi=  4
 NAtoms=   12 NActive=   12 NUniq=   12 SFac= 1.00D+00 NAtFMM=   60 NAOKFM=F Big=F
 Integral buffers will be    131072 words long.
 Raffenetti 2 integral format.
 Two-electron integral symmetry is turned on.
 Leave Link  301 at Sat Aug 28 00:50:31 2021, MaxMem= 17179869184 cpu:        12.7
 (Enter /public3/home/sc51754/softwares/g09e01/l302.exe)
 NPDir=0 NMtPBC=     1 NCelOv=     1 NCel=       1 NClECP=     1 NCelD=      1
         NCelK=      1 NCelE2=     1 NClLst=     1 CellRange=     0.0.
 One-electron integrals computed using PRISM.
 NBasis=   280 RedAO= T EigKep=  2.12D-04  NBF=   190    90
 NBsUse=   280 1.00D-06 EigRej= -1.00D+00 NBFU=   190    90
 Precomputing XC quadrature grid using
 IXCGrd= 4 IRadAn=           0 IRanWt=          -1 IRanGd=           0 AccXCQ= 0.00D+00.
 Generated NRdTot=       0 NPtTot=           0 NUsed=           0 NTot=          32
 NSgBfM=   320   320   320   320   320 MxSgAt=    12 MxSgA2=    12.
 Leave Link  302 at Sat Aug 28 00:50:34 2021, MaxMem= 17179869184 cpu:        90.4
 (Enter /public3/home/sc51754/softwares/g09e01/l303.exe)
 DipDrv:  MaxL=1.
 Leave Link  303 at Sat Aug 28 00:50:35 2021, MaxMem= 17179869184 cpu:        43.6
 (Enter /public3/home/sc51754/softwares/g09e01/l401.exe)
 ExpMin= 7.41D-02 ExpMax= 1.48D+04 ExpMxC= 5.05D+02 IAcc=2 IRadAn=         4 AccDes= 0.00D+00
 Harris functional with IExCor=  402 and IRadAn=       4 diagonalized for initial guess.
 HarFok:  IExCor=  402 AccDes= 0.00D+00 IRadAn=         4 IDoV= 1 UseB2=F ITyADJ=14
 ICtDFT=  3500011 ScaDFX=  1.000000  1.000000  1.000000  1.000000
 FoFCou: FMM=F IPFlag=           0 FMFlag=      100000 FMFlg1=           0
         NFxFlg=           0 DoJE=T BraDBF=F KetDBF=T FulRan=T
         wScrn=  0.000000 ICntrl=     500 IOpCl=  0 I1Cent=   200000004 NGrid=           0
         NMat0=    1 NMatS0=      1 NMatT0=    0 NMatD0=    1 NMtDS0=    0 NMtDT0=    0
 Petite list used in FoFCou.
 Harris En= -323.611983646094    
 JPrj=0 DoOrth=F DoCkMO=F.
 Initial guess orbital symmetries:
       Occupied  (A') (A') (A') (A') (A') (A') (A') (A') (A') (A')
                 (A') (A') (A') (A') (A') (A') (A') (A') (A") (A')
                 (A") (A') (A") (A') (A")
       Virtual   (A") (A") (A') (A') (A') (A") (A') (A') (A') (A')
                 (A') (A') (A") (A') (A') (A") (A") (A') (A') (A')
                 (A') (A") (A') (A') (A") (A') (A') (A') (A') (A')
                 (A') (A") (A') (A") (A') (A') (A') (A') (A') (A')
                 (A') (A') (A') (A") (A') (A') (A") (A') (A") (A")
                 (A') (A') (A') (A") (A') (A") (A") (A') (A') (A')
                 (A') (A") (A') (A') (A") (A') (A') (A') (A") (A")
                 (A') (A") (A") (A') (A") (A') (A') (A") (A') (A")
                 (A") (A') (A') (A') (A") (A') (A') (A") (A') (A")
                 (A') (A") (A') (A') (A') (A') (A') (A") (A') (A')
                 (A') (A') (A") (A') (A') (A') (A') (A") (A') (A')
                 (A") (A') (A') (A') (A') (A') (A") (A') (A') (A')
                 (A") (A') (A') (A") (A') (A") (A') (A") (A") (A')
                 (A") (A") (A') (A') (A") (A') (A') (A') (A") (A')
                 (A') (A') (A') (A") (A') (A") (A") (A') (A') (A')
                 (A') (A') (A") (A') (A") (A") (A") (A') (A') (A")
                 (A") (A') (A") (A') (A') (A") (A') (A") (A') (A')
                 (A") (A') (A") (A') (A") (A') (A") (A') (A") (A")
                 (A') (A") (A') (A") (A') (A") (A') (A") (A') (A")
                 (A") (A') (A") (A') (A') (A") (A') (A") (A') (A")
                 (A') (A') (A") (A") (A') (A') (A') (A") (A') (A')
                 (A') (A') (A") (A') (A") (A') (A') (A") (A') (A")
                 (A') (A") (A') (A') (A") (A') (A") (A') (A') (A')
                 (A') (A') (A") (A') (A') (A') (A') (A') (A") (A')
                 (A') (A") (A') (A') (A') (A') (A') (A') (A') (A')
                 (A') (A') (A') (A') (A')
 The electronic state of the initial guess is 1-A'.
 Leave Link  401 at Sat Aug 28 00:50:37 2021, MaxMem= 17179869184 cpu:        62.5
 (Enter /public3/home/sc51754/softwares/g09e01/l502.exe)
 Closed shell SCF:
 Using DIIS extrapolation, IDIIS=  1040.
 Integral symmetry usage will be decided dynamically.
 Keep R1 ints in memory in symmetry-blocked form, NReq=1167802198.
 IVT=      348658 IEndB=      348658 NGot= 17179869184 MDV= 16785904737
 LenX= 16785904737 LenY= 16785801896
 Requested convergence on RMS density matrix=1.00D-08 within 128 cycles.
 Requested convergence on MAX density matrix=1.00D-06.
 Requested convergence on             energy=1.00D-06.
 No special actions if energy rises.
 FoFCou: FMM=F IPFlag=           0 FMFlag=           0 FMFlg1=           0
         NFxFlg=           0 DoJE=F BraDBF=F KetDBF=F FulRan=T
         wScrn=  0.000000 ICntrl=     600 IOpCl=  0 I1Cent=           0 NGrid=           0
         NMat0=    1 NMatS0=  39340 NMatT0=    0 NMatD0=    1 NMtDS0=    0 NMtDT0=    0
 Petite list used in FoFCou.
 Integral accuracy reduced to 1.0D-05 until final iterations.

 Cycle   1  Pass 0  IDiag  1:
 E= -323.151201977233    
 DIIS: error= 3.17D-02 at cycle   1 NSaved=   1.
 NSaved= 1 IEnMin= 1 EnMin= -323.151201977233     IErMin= 1 ErrMin= 3.17D-02
 ErrMax= 3.17D-02  0.00D+00 EMaxC= 1.00D-01 BMatC= 2.61D-01 BMatP= 2.61D-01
 IDIUse=3 WtCom= 6.83D-01 WtEn= 3.17D-01
 Coeff-Com:  0.100D+01
 Coeff-En:   0.100D+01
 Coeff:      0.100D+01
 Gap=     0.185 Goal=   None    Shift=    0.000
 GapD=    0.185 DampG=1.000 DampE=0.500 DampFc=0.5000 IDamp=-1.
 Damping current iteration by 5.00D-01
 RMSDP=2.73D-03 MaxDP=1.36D-01              OVMax= 1.75D-01

 Cycle   2  Pass 0  IDiag  1:
 E= -323.253341665943     Delta-E=       -0.102139688710 Rises=F Damp=T
 DIIS: error= 9.64D-03 at cycle   2 NSaved=   2.
 NSaved= 2 IEnMin= 2 EnMin= -323.253341665943     IErMin= 2 ErrMin= 9.64D-03
 ErrMax= 9.64D-03  0.00D+00 EMaxC= 1.00D-01 BMatC= 2.48D-02 BMatP= 2.61D-01
 IDIUse=3 WtCom= 9.04D-01 WtEn= 9.64D-02
 Coeff-Com: -0.542D-01 0.105D+01
 Coeff-En:   0.000D+00 0.100D+01
 Coeff:     -0.490D-01 0.105D+01
 Gap=     0.299 Goal=   None    Shift=    0.000
 RMSDP=7.77D-04 MaxDP=3.28D-02 DE=-1.02D-01 OVMax= 1.46D-01

 Cycle   3  Pass 0  IDiag  1:
 E= -323.349936766704     Delta-E=       -0.096595100761 Rises=F Damp=F
 DIIS: error= 9.02D-03 at cycle   3 NSaved=   3.
 NSaved= 3 IEnMin= 3 EnMin= -323.349936766704     IErMin= 3 ErrMin= 9.02D-03
 ErrMax= 9.02D-03  0.00D+00 EMaxC= 1.00D-01 BMatC= 2.13D-02 BMatP= 2.48D-02
 IDIUse=3 WtCom= 9.10D-01 WtEn= 9.02D-02
 Coeff-Com: -0.116D+00 0.549D+00 0.567D+00
 Coeff-En:   0.000D+00 0.000D+00 0.100D+01
 Coeff:     -0.106D+00 0.499D+00 0.606D+00
 Gap=     0.276 Goal=   None    Shift=    0.000
 RMSDP=4.37D-04 MaxDP=2.22D-02 DE=-9.66D-02 OVMax= 6.15D-02

 Cycle   4  Pass 0  IDiag  1:
 E= -323.362619976329     Delta-E=       -0.012683209625 Rises=F Damp=F
 DIIS: error= 3.87D-03 at cycle   4 NSaved=   4.
 NSaved= 4 IEnMin= 4 EnMin= -323.362619976329     IErMin= 4 ErrMin= 3.87D-03
 ErrMax= 3.87D-03  0.00D+00 EMaxC= 1.00D-01 BMatC= 4.81D-03 BMatP= 2.13D-02
 IDIUse=3 WtCom= 9.61D-01 WtEn= 3.87D-02
 Coeff-Com: -0.484D-01 0.105D+00 0.357D+00 0.586D+00
 Coeff-En:   0.000D+00 0.000D+00 0.212D+00 0.788D+00
 Coeff:     -0.465D-01 0.101D+00 0.352D+00 0.594D+00
 Gap=     0.279 Goal=   None    Shift=    0.000
 RMSDP=1.63D-04 MaxDP=9.21D-03 DE=-1.27D-02 OVMax= 1.98D-02

 Cycle   5  Pass 0  IDiag  1:
 E= -323.366590153280     Delta-E=       -0.003970176951 Rises=F Damp=F
 DIIS: error= 3.65D-04 at cycle   5 NSaved=   5.
 NSaved= 5 IEnMin= 5 EnMin= -323.366590153280     IErMin= 5 ErrMin= 3.65D-04
 ErrMax= 3.65D-04  0.00D+00 EMaxC= 1.00D-01 BMatC= 5.76D-05 BMatP= 4.81D-03
 IDIUse=3 WtCom= 9.96D-01 WtEn= 3.65D-03
 Coeff-Com: -0.922D-02 0.702D-02 0.748D-01 0.182D+00 0.745D+00
 Coeff-En:   0.000D+00 0.000D+00 0.000D+00 0.000D+00 0.100D+01
 Coeff:     -0.919D-02 0.699D-02 0.746D-01 0.182D+00 0.746D+00
 Gap=     0.278 Goal=   None    Shift=    0.000
 RMSDP=2.55D-05 MaxDP=1.40D-03 DE=-3.97D-03 OVMax= 3.46D-03

 Cycle   6  Pass 0  IDiag  1:
 E= -323.366635923897     Delta-E=       -0.000045770618 Rises=F Damp=F
 DIIS: error= 3.17D-04 at cycle   6 NSaved=   6.
 NSaved= 6 IEnMin= 6 EnMin= -323.366635923897     IErMin= 6 ErrMin= 3.17D-04
 ErrMax= 3.17D-04  0.00D+00 EMaxC= 1.00D-01 BMatC= 1.07D-05 BMatP= 5.76D-05
 IDIUse=3 WtCom= 9.97D-01 WtEn= 3.17D-03
 Coeff-Com: -0.188D-02-0.214D-02 0.164D-01 0.550D-01 0.372D+00 0.560D+00
 Coeff-En:   0.000D+00 0.000D+00 0.000D+00 0.000D+00 0.335D-01 0.967D+00
 Coeff:     -0.187D-02-0.214D-02 0.164D-01 0.548D-01 0.371D+00 0.562D+00
 Gap=     0.278 Goal=   None    Shift=    0.000
 RMSDP=9.45D-06 MaxDP=4.61D-04 DE=-4.58D-05 OVMax= 1.42D-03

 Initial convergence to 1.0D-05 achieved.  Increase integral accuracy.
 Cycle   7  Pass 1  IDiag  1:
 E= -323.366628949435     Delta-E=        0.000006974462 Rises=F Damp=F
 DIIS: error= 4.10D-05 at cycle   1 NSaved=   1.
 NSaved= 1 IEnMin= 1 EnMin= -323.366628949435     IErMin= 1 ErrMin= 4.10D-05
 ErrMax= 4.10D-05  0.00D+00 EMaxC= 1.00D-01 BMatC= 4.42D-07 BMatP= 4.42D-07
 IDIUse=1 WtCom= 1.00D+00 WtEn= 0.00D+00
 Coeff-Com:  0.100D+01
 Coeff:      0.100D+01
 Gap=     0.278 Goal=   None    Shift=    0.000
 RMSDP=9.45D-06 MaxDP=4.61D-04 DE= 6.97D-06 OVMax= 5.27D-04

 Cycle   8  Pass 1  IDiag  1:
 E= -323.366629274550     Delta-E=       -0.000000325115 Rises=F Damp=F
 DIIS: error= 7.33D-05 at cycle   2 NSaved=   2.
 NSaved= 2 IEnMin= 2 EnMin= -323.366629274550     IErMin= 1 ErrMin= 4.10D-05
 ErrMax= 7.33D-05  0.00D+00 EMaxC= 1.00D-01 BMatC= 4.14D-07 BMatP= 4.42D-07
 IDIUse=1 WtCom= 1.00D+00 WtEn= 0.00D+00
 Coeff-Com:  0.490D+00 0.510D+00
 Coeff:      0.490D+00 0.510D+00
 Gap=     0.279 Goal=   None    Shift=    0.000
 RMSDP=1.95D-06 MaxDP=7.18D-05 DE=-3.25D-07 OVMax= 3.30D-04

 Cycle   9  Pass 1  IDiag  1:
 E= -323.366629709511     Delta-E=       -0.000000434960 Rises=F Damp=F
 DIIS: error= 1.08D-05 at cycle   3 NSaved=   3.
 NSaved= 3 IEnMin= 3 EnMin= -323.366629709511     IErMin= 3 ErrMin= 1.08D-05
 ErrMax= 1.08D-05  0.00D+00 EMaxC= 1.00D-01 BMatC= 2.29D-08 BMatP= 4.14D-07
 IDIUse=1 WtCom= 1.00D+00 WtEn= 0.00D+00
 Coeff-Com: -0.939D-01 0.115D+00 0.979D+00
 Coeff:     -0.939D-01 0.115D+00 0.979D+00
 Gap=     0.279 Goal=   None    Shift=    0.000
 RMSDP=7.78D-07 MaxDP=2.47D-05 DE=-4.35D-07 OVMax= 9.17D-05

 Cycle  10  Pass 1  IDiag  1:
 E= -323.366629751768     Delta-E=       -0.000000042257 Rises=F Damp=F
 DIIS: error= 3.26D-06 at cycle   4 NSaved=   4.
 NSaved= 4 IEnMin= 4 EnMin= -323.366629751768     IErMin= 4 ErrMin= 3.26D-06
 ErrMax= 3.26D-06  0.00D+00 EMaxC= 1.00D-01 BMatC= 2.08D-09 BMatP= 2.29D-08
 IDIUse=1 WtCom= 1.00D+00 WtEn= 0.00D+00
 Coeff-Com: -0.682D-01-0.551D-02 0.271D+00 0.803D+00
 Coeff:     -0.682D-01-0.551D-02 0.271D+00 0.803D+00
 Gap=     0.279 Goal=   None    Shift=    0.000
 RMSDP=2.21D-07 MaxDP=1.29D-05 DE=-4.23D-08 OVMax= 3.10D-05

 Cycle  11  Pass 1  IDiag  1:
 E= -323.366629754885     Delta-E=       -0.000000003117 Rises=F Damp=F
 DIIS: error= 1.67D-06 at cycle   5 NSaved=   5.
 NSaved= 5 IEnMin= 5 EnMin= -323.366629754885     IErMin= 5 ErrMin= 1.67D-06
 ErrMax= 1.67D-06  0.00D+00 EMaxC= 1.00D-01 BMatC= 7.12D-10 BMatP= 2.08D-09
 IDIUse=1 WtCom= 1.00D+00 WtEn= 0.00D+00
 Coeff-Com: -0.227D-01-0.171D-01 0.988D-02 0.405D+00 0.625D+00
 Coeff:     -0.227D-01-0.171D-01 0.988D-02 0.405D+00 0.625D+00
 Gap=     0.279 Goal=   None    Shift=    0.000
 RMSDP=9.99D-08 MaxDP=5.53D-06 DE=-3.12D-09 OVMax= 1.39D-05

 Cycle  12  Pass 1  IDiag  1:
 E= -323.366629755611     Delta-E=       -0.000000000726 Rises=F Damp=F
 DIIS: error= 7.45D-07 at cycle   6 NSaved=   6.
 NSaved= 6 IEnMin= 6 EnMin= -323.366629755611     IErMin= 6 ErrMin= 7.45D-07
 ErrMax= 7.45D-07  0.00D+00 EMaxC= 1.00D-01 BMatC= 1.22D-10 BMatP= 7.12D-10
 IDIUse=1 WtCom= 1.00D+00 WtEn= 0.00D+00
 Coeff-Com:  0.184D-02-0.710D-02-0.474D-01 0.470D-01 0.327D+00 0.679D+00
 Coeff:      0.184D-02-0.710D-02-0.474D-01 0.470D-01 0.327D+00 0.679D+00
 Gap=     0.279 Goal=   None    Shift=    0.000
 RMSDP=3.93D-08 MaxDP=2.09D-06 DE=-7.26D-10 OVMax= 5.05D-06

 Cycle  13  Pass 1  IDiag  1:
 E= -323.366629755726     Delta-E=       -0.000000000115 Rises=F Damp=F
 DIIS: error= 3.56D-07 at cycle   7 NSaved=   7.
 NSaved= 7 IEnMin= 7 EnMin= -323.366629755726     IErMin= 7 ErrMin= 3.56D-07
 ErrMax= 3.56D-07  0.00D+00 EMaxC= 1.00D-01 BMatC= 1.47D-11 BMatP= 1.22D-10
 IDIUse=1 WtCom= 1.00D+00 WtEn= 0.00D+00
 Coeff-Com:  0.372D-02-0.158D-02-0.249D-01-0.237D-01 0.103D+00 0.343D+00
 Coeff-Com:  0.601D+00
 Coeff:      0.372D-02-0.158D-02-0.249D-01-0.237D-01 0.103D+00 0.343D+00
 Coeff:      0.601D+00
 Gap=     0.279 Goal=   None    Shift=    0.000
 RMSDP=1.45D-08 MaxDP=6.51D-07 DE=-1.15D-10 OVMax= 2.48D-06

 Cycle  14  Pass 1  IDiag  1:
 E= -323.366629755732     Delta-E=       -0.000000000005 Rises=F Damp=F
 DIIS: error= 9.79D-08 at cycle   8 NSaved=   8.
 NSaved= 8 IEnMin= 8 EnMin= -323.366629755732     IErMin= 8 ErrMin= 9.79D-08
 ErrMax= 9.79D-08  0.00D+00 EMaxC= 1.00D-01 BMatC= 1.33D-12 BMatP= 1.47D-11
 IDIUse=1 WtCom= 1.00D+00 WtEn= 0.00D+00
 Coeff-Com:  0.128D-02-0.247D-03-0.638D-02-0.137D-01 0.139D-01 0.598D-01
 Coeff-Com:  0.247D+00 0.698D+00
 Coeff:      0.128D-02-0.247D-03-0.638D-02-0.137D-01 0.139D-01 0.598D-01
 Coeff:      0.247D+00 0.698D+00
 Gap=     0.279 Goal=   None    Shift=    0.000
 RMSDP=4.37D-09 MaxDP=1.80D-07 DE=-5.23D-12 OVMax= 8.01D-07

 SCF Done:  E(RBHandHLYP) =  -323.366629756     A.U. after   14 cycles
            NFock= 14  Conv=0.44D-08     -V/T= 2.0039
 KE= 3.221159870321D+02 PE=-1.311164460027D+03 EE= 3.873580445054D+02
 Leave Link  502 at Sat Aug 28 00:50:48 2021, MaxMem= 17179869184 cpu:       369.9
 (Enter /public3/home/sc51754/softwares/g09e01/l801.exe)
 DoSCS=F DFT=T ScalE2(SS,OS)=  1.000000  1.000000
 Range of M.O.s used for correlation:     1   280
 NBasis=   280 NAE=    25 NBE=    25 NFC=     0 NFV=     0
 NROrb=    280 NOA=    25 NOB=    25 NVA=   255 NVB=   255

 **** Warning!!: The largest alpha MO coefficient is  0.18681744D+02

 Leave Link  801 at Sat Aug 28 00:50:49 2021, MaxMem= 17179869184 cpu:         2.6
 (Enter /public3/home/sc51754/softwares/g09e01/l1101.exe)
 Using compressed storage, NAtomX=    12.
 Will process     13 centers per pass.
 Leave Link 1101 at Sat Aug 28 00:50:50 2021, MaxMem= 17179869184 cpu:        52.3
 (Enter /public3/home/sc51754/softwares/g09e01/l1102.exe)
 Symmetrizing basis deriv contribution to polar:
 IMax=3 JMax=2 DiffMx= 0.00D+00
 Leave Link 1102 at Sat Aug 28 00:50:52 2021, MaxMem= 17179869184 cpu:        17.5
 (Enter /public3/home/sc51754/softwares/g09e01/l1110.exe)
 Forming Gx(P) for the SCF density, NAtomX=    12.
 Integral derivatives from FoFJK, PRISM(SPDF).
 Do as many integral derivatives as possible in FoFJK.
 G2DrvN: MDV=   17179868984.
 G2DrvN: will do    13 centers at a time, making    1 passes.
 Calling FoFCou, ICntrl=  3107 FMM=F I1Cent=   0 AccDes= 0.00D+00.
 FoFJK:  IHMeth= 1 ICntrl=    3107 DoSepK=F KAlg= 0 I1Cent=   0 FoldK=F
 IRaf=         0 NMat=   1 IRICut=       1 DoRegI=T DoRafI=F ISym2E= 1.
 FoFCou: FMM=F IPFlag=           0 FMFlag=      100000 FMFlg1=           0
         NFxFlg=           0 DoJE=F BraDBF=F KetDBF=F FulRan=T
         wScrn=  0.000000 ICntrl=    3107 IOpCl=  0 I1Cent=           0 NGrid=           0
         NMat0=    1 NMatS0=      1 NMatT0=    0 NMatD0=    1 NMtDS0=    0 NMtDT0=    0
 Petite list used in FoFCou.
 End of G2Drv F.D. properties file   721 does not exist.
 End of G2Drv F.D. properties file   722 does not exist.
 End of G2Drv F.D. properties file   788 does not exist.
 Leave Link 1110 at Sat Aug 28 00:50:58 2021, MaxMem= 17179869184 cpu:       328.5
 (Enter /public3/home/sc51754/softwares/g09e01/l1002.exe)
 Minotr:  Closed shell wavefunction.
          IDoAtm=111111111111
          Direct CPHF calculation.
          Differentiating once with respect to nuclear coordinates.
          Using symmetry in CPHF.
          Requested convergence is 1.0D-08 RMS, and 1.0D-07 maximum.
          Secondary convergence is 1.0D-12 RMS, and 1.0D-12 maximum.
          NewPWx=T KeepS1=F KeepF1=F KeepIn=T MapXYZ=F SortEE=F KeepMc=T.
          MDV=   17179868780 using IRadAn=       2.
 Generate precomputed XC quadrature information.
 Keep R1 ints in memory in symmetry-blocked form, NReq=1167458725.
 FoFCou: FMM=F IPFlag=           0 FMFlag=           0 FMFlg1=           0
         NFxFlg=           0 DoJE=F BraDBF=F KetDBF=F FulRan=T
         wScrn=  0.000000 ICntrl=     600 IOpCl=  0 I1Cent=           0 NGrid=           0
         NMat0=    1 NMatS0=  39340 NMatT0=    0 NMatD0=    1 NMtDS0=    0 NMtDT0=    0
 Petite list used in FoFCou.
          Solving linear equations simultaneously, MaxMat=       0.
          There are    39 degrees of freedom in the 1st order CPHF.  IDoFFX=6 NUNeed=     0.
     33 vectors produced by pass  0 Test12= 1.63D-14 2.56D-09 XBig12= 1.03D-01 1.02D-01.
 AX will form    33 AO Fock derivatives at one time.
     33 vectors produced by pass  1 Test12= 1.63D-14 2.56D-09 XBig12= 8.79D-03 4.01D-02.
     33 vectors produced by pass  2 Test12= 1.63D-14 2.56D-09 XBig12= 2.87D-04 3.37D-03.
     33 vectors produced by pass  3 Test12= 1.63D-14 2.56D-09 XBig12= 3.10D-06 3.00D-04.
     33 vectors produced by pass  4 Test12= 1.63D-14 2.56D-09 XBig12= 2.40D-08 2.41D-05.
     33 vectors produced by pass  5 Test12= 1.63D-14 2.56D-09 XBig12= 1.43D-10 1.92D-06.
     25 vectors produced by pass  6 Test12= 1.63D-14 2.56D-09 XBig12= 5.45D-13 1.15D-07.
      7 vectors produced by pass  7 Test12= 1.63D-14 2.56D-09 XBig12= 2.41D-15 6.61D-09.
 InvSVY:  IOpt=1 It=  1 EMax= 1.11D-15
 Solved reduced A of dimension   230 with    33 vectors.
 End of Minotr F.D. properties file   721 does not exist.
 End of Minotr F.D. properties file   722 does not exist.
 End of Minotr F.D. properties file   788 does not exist.
 Leave Link 1002 at Sat Aug 28 00:51:10 2021, MaxMem= 17179869184 cpu:       751.1
 (Enter /public3/home/sc51754/softwares/g09e01/l601.exe)
 Copying SCF densities to generalized density rwf, IOpCl= 0 IROHF=0.

 **********************************************************************

            Population analysis using the SCF density.

 **********************************************************************

 Orbital symmetries:
       Occupied  (A') (A') (A') (A') (A') (A') (A') (A') (A') (A')
                 (A') (A') (A') (A') (A') (A') (A") (A') (A') (A')
                 (A") (A') (A') (A") (A")
       Virtual   (A") (A') (A") (A') (A') (A') (A') (A') (A') (A")
                 (A') (A") (A') (A') (A') (A") (A") (A') (A') (A")
                 (A') (A") (A') (A') (A') (A') (A') (A') (A') (A')
                 (A") (A') (A') (A") (A') (A') (A') (A') (A') (A')
                 (A') (A') (A") (A') (A') (A') (A") (A') (A") (A")
                 (A') (A') (A') (A") (A") (A") (A') (A') (A') (A')
                 (A') (A') (A') (A") (A') (A") (A') (A') (A') (A")
                 (A") (A") (A') (A") (A") (A') (A') (A") (A') (A')
                 (A") (A") (A') (A') (A') (A") (A') (A") (A') (A')
                 (A") (A") (A') (A') (A') (A') (A') (A") (A') (A')
                 (A') (A') (A") (A') (A') (A') (A") (A') (A') (A')
                 (A") (A') (A') (A') (A') (A') (A') (A") (A') (A')
                 (A") (A') (A') (A") (A') (A") (A') (A") (A") (A")
                 (A') (A") (A') (A") (A') (A') (A') (A') (A") (A')
                 (A') (A") (A') (A') (A') (A") (A") (A') (A') (A')
                 (A") (A') (A') (A") (A') (A") (A") (A') (A') (A")
                 (A") (A') (A") (A') (A") (A') (A") (A') (A') (A')
                 (A") (A") (A') (A') (A") (A') (A") (A') (A") (A")
                 (A') (A") (A') (A') (A") (A") (A') (A") (A') (A")
                 (A") (A") (A') (A') (A') (A") (A') (A") (A') (A")
                 (A') (A") (A') (A") (A') (A') (A') (A") (A') (A')
                 (A') (A") (A') (A") (A') (A') (A') (A") (A') (A")
                 (A") (A') (A') (A') (A") (A') (A") (A') (A') (A')
                 (A') (A') (A") (A') (A') (A') (A') (A') (A") (A')
                 (A') (A') (A") (A') (A') (A') (A') (A') (A') (A')
                 (A') (A') (A') (A') (A')
 The electronic state is 1-A'.
 Alpha  occ. eigenvalues --  -19.68419 -14.83340 -10.68665 -10.64664 -10.61685
 Alpha  occ. eigenvalues --  -10.59699 -10.59340  -1.17952  -1.08292  -0.94544
 Alpha  occ. eigenvalues --   -0.87553  -0.76623  -0.72420  -0.62732  -0.59885
 Alpha  occ. eigenvalues --   -0.55472  -0.52153  -0.51618  -0.50976  -0.45992
 Alpha  occ. eigenvalues --   -0.41365  -0.40678  -0.37931  -0.36095  -0.28451
 Alpha virt. eigenvalues --   -0.00597   0.01471   0.03420   0.04551   0.06315
 Alpha virt. eigenvalues --    0.08113   0.10195   0.15176   0.17428   0.17475
 Alpha virt. eigenvalues --    0.18690   0.19083   0.20521   0.21897   0.22768
 Alpha virt. eigenvalues --    0.23024   0.23578   0.28096   0.28567   0.30496
 Alpha virt. eigenvalues --    0.32135   0.33540   0.33759   0.34330   0.36349
 Alpha virt. eigenvalues --    0.38034   0.40963   0.41540   0.42313   0.44083
 Alpha virt. eigenvalues --    0.46958   0.48305   0.48570   0.49140   0.49541
 Alpha virt. eigenvalues --    0.54942   0.55486   0.56178   0.59610   0.64256
 Alpha virt. eigenvalues --    0.68819   0.69031   0.70300   0.72166   0.73020
 Alpha virt. eigenvalues --    0.75040   0.76936   0.78257   0.83271   0.86917
 Alpha virt. eigenvalues --    0.88929   0.95464   0.96457   0.97345   1.01034
 Alpha virt. eigenvalues --    1.02434   1.02673   1.03487   1.05180   1.07087
 Alpha virt. eigenvalues --    1.08798   1.14286   1.16312   1.17994   1.21838
 Alpha virt. eigenvalues --    1.22478   1.23230   1.23816   1.28538   1.29158
 Alpha virt. eigenvalues --    1.30649   1.34531   1.35177   1.37269   1.38504
 Alpha virt. eigenvalues --    1.45008   1.49198   1.49282   1.49924   1.55840
 Alpha virt. eigenvalues --    1.58249   1.59483   1.59905   1.62042   1.64687
 Alpha virt. eigenvalues --    1.66235   1.69270   1.69772   1.74177   1.75044
 Alpha virt. eigenvalues --    1.76757   1.78417   1.79701   1.81393   1.84524
 Alpha virt. eigenvalues --    1.86607   1.89948   1.95289   1.95514   1.96130
 Alpha virt. eigenvalues --    2.01416   2.02376   2.08659   2.09804   2.11654
 Alpha virt. eigenvalues --    2.20380   2.21410   2.24067   2.28619   2.30763
 Alpha virt. eigenvalues --    2.33742   2.35035   2.36095   2.38230   2.42213
 Alpha virt. eigenvalues --    2.44643   2.51809   2.54000   2.76610   2.80547
 Alpha virt. eigenvalues --    2.97076   2.98971   3.06020   3.07411   3.16370
 Alpha virt. eigenvalues --    3.26030   3.30199   3.30676   3.35443   3.38747
 Alpha virt. eigenvalues --    3.39449   3.42179   3.47580   3.49861   3.50827
 Alpha virt. eigenvalues --    3.54050   3.54590   3.62239   3.62515   3.68951
 Alpha virt. eigenvalues --    3.70570   3.71125   3.72232   3.73873   3.77000
 Alpha virt. eigenvalues --    3.78233   3.85462   3.85586   3.90269   3.96330
 Alpha virt. eigenvalues --    4.01589   4.01845   4.02317   4.04675   4.06120
 Alpha virt. eigenvalues --    4.09108   4.12969   4.16256   4.18476   4.18812
 Alpha virt. eigenvalues --    4.20454   4.23605   4.25306   4.27151   4.29801
 Alpha virt. eigenvalues --    4.30743   4.31608   4.31696   4.35314   4.36903
 Alpha virt. eigenvalues --    4.37838   4.39753   4.40197   4.42804   4.43894
 Alpha virt. eigenvalues --    4.46004   4.46166   4.48152   4.48268   4.52598
 Alpha virt. eigenvalues --    4.53589   4.56042   4.56059   4.57189   4.58969
 Alpha virt. eigenvalues --    4.60165   4.60949   4.63249   4.67362   4.69047
 Alpha virt. eigenvalues --    4.70732   4.73339   4.73555   4.75980   4.78730
 Alpha virt. eigenvalues --    4.79472   4.84949   4.88538   4.89943   4.97521
 Alpha virt. eigenvalues --    4.98710   5.05114   5.06041   5.07590   5.11090
 Alpha virt. eigenvalues --    5.17472   5.22348   5.24421   5.28576   5.31453
 Alpha virt. eigenvalues --    5.34221   5.40789   5.42508   5.43742   5.44550
 Alpha virt. eigenvalues --    5.46673   5.48435   5.52225   5.52596   5.56757
 Alpha virt. eigenvalues --    5.58029   5.58968   5.61513   5.68037   5.69910
 Alpha virt. eigenvalues --    5.72041   5.78839   5.80964   5.82117   5.85879
 Alpha virt. eigenvalues --    5.88284   5.97600   5.99835   6.04345   6.18686
 Alpha virt. eigenvalues --    6.23636   6.27199   6.31741   6.41813   6.52881
 Alpha virt. eigenvalues --    6.58804   6.66641   6.69637   6.70319   6.81224
 Alpha virt. eigenvalues --    7.04147   7.27321   7.33054   9.60307  12.05467
 Alpha virt. eigenvalues --   12.81790  14.90386  17.66134  18.73748  22.59046
          Condensed to atoms (all electrons):
               1          2          3          4          5          6
     1  O    8.194288  -0.138331   0.376584  -0.061567   0.000525   0.005345
     2  N   -0.138331   6.744986   0.403929  -0.005170   0.514673  -0.036664
     3  C    0.376584   0.403929   4.339391   0.521415  -0.088653  -0.050429
     4  C   -0.061567  -0.005170   0.521415   4.774764  -0.042584   0.552097
     5  C    0.000525   0.514673  -0.088653  -0.042584   4.501157  -0.080334
     6  C    0.005345  -0.036664  -0.050429   0.552097  -0.080334   4.644026
     7  C    0.000013  -0.029130  -0.045506  -0.061279   0.573564   0.501294
     8  H    0.200778   0.075993  -0.044236   0.020784  -0.001148  -0.005290
     9  H    0.003472   0.006523  -0.032528   0.445670  -0.002122  -0.031272
    10  H   -0.000778  -0.035016   0.002879  -0.002617   0.441970   0.006988
    11  H   -0.000441  -0.001526   0.007138  -0.030176   0.006927   0.433743
    12  H    0.000043   0.006046  -0.001047   0.006428  -0.027890  -0.029356
               7          8          9         10         11         12
     1  O    0.000013   0.200778   0.003472  -0.000778  -0.000441   0.000043
     2  N   -0.029130   0.075993   0.006523  -0.035016  -0.001526   0.006046
     3  C   -0.045506  -0.044236  -0.032528   0.002879   0.007138  -0.001047
     4  C   -0.061279   0.020784   0.445670  -0.002617  -0.030176   0.006428
     5  C    0.573564  -0.001148  -0.002122   0.441970   0.006927  -0.027890
     6  C    0.501294  -0.005290  -0.031272   0.006988   0.433743  -0.029356
     7  C    4.857293   0.003072   0.006622  -0.049825  -0.039501   0.439023
     8  H    0.003072   0.443233  -0.000512  -0.002528   0.000144  -0.000107
     9  H    0.006622  -0.000512   0.573508   0.000183  -0.005117  -0.000067
    10  H   -0.049825  -0.002528   0.000183   0.598252  -0.000051  -0.003881
    11  H   -0.039501   0.000144  -0.005117  -0.000051   0.596568  -0.005337
    12  H    0.439023  -0.000107  -0.000067  -0.003881  -0.005337   0.588839
 Mulliken charges:
               1
     1  O   -0.579930
     2  N   -0.506313
     3  C    0.611063
     4  C   -0.117765
     5  C    0.203915
     6  C    0.089852
     7  C   -0.155640
     8  H    0.309818
     9  H    0.035640
    10  H    0.044423
    11  H    0.037630
    12  H    0.027306
 Sum of Mulliken charges =  -0.00000
 Mulliken charges with hydrogens summed into heavy atoms:
               1
     1  O   -0.270112
     2  N   -0.506313
     3  C    0.611063
     4  C   -0.082125
     5  C    0.248338
     6  C    0.127482
     7  C   -0.128334
 APT charges:
               1
     1  O   -0.366175
     2  N   -0.463481
     3  C    0.248073
     4  C   -0.519501
     5  C   -0.308152
     6  C   -0.311269
     7  C   -0.498636
     8  H    0.363552
     9  H    0.410654
    10  H    0.462457
    11  H    0.471314
    12  H    0.511164
 Sum of APT charges =  -0.00000
 APT charges with hydrogens summed into heavy atoms:
               1
     1  O   -0.002622
     2  N   -0.463481
     3  C    0.248073
     4  C   -0.108847
     5  C    0.154304
     6  C    0.160046
     7  C    0.012527
 Electronic spatial extent (au):  <R**2>=            616.9019
 Charge=             -0.0000 electrons
 Dipole moment (field-independent basis, Debye):
    X=             -0.1380    Y=             -3.3061    Z=              0.0000  Tot=              3.3090
 Quadrupole moment (field-independent basis, Debye-Ang):
   XX=            -35.1131   YY=            -43.7840   ZZ=            -43.3738
   XY=             -1.4949   XZ=              0.0000   YZ=              0.0000
 Traceless Quadrupole moment (field-independent basis, Debye-Ang):
   XX=              5.6438   YY=             -3.0270   ZZ=             -2.6168
   XY=             -1.4949   XZ=              0.0000   YZ=              0.0000
 Octapole moment (field-independent basis, Debye-Ang**2):
  XXX=              1.9342  YYY=            -22.1453  ZZZ=             -0.0000  XYY=             -5.6019
  XXY=              1.2224  XXZ=             -0.0000  XZZ=             -1.2802  YZZ=              4.3360
  YYZ=             -0.0000  XYZ=             -0.0000
 Hexadecapole moment (field-independent basis, Debye-Ang**3):
 XXXX=           -255.8633 YYYY=           -516.4545 ZZZZ=            -47.5738 XXXY=              6.8537
 XXXZ=             -0.0000 YYYX=             -6.8951 YYYZ=              0.0000 ZZZX=             -0.0000
 ZZZY=              0.0000 XXYY=           -107.0961 XXZZ=            -59.7751 YYZZ=            -97.2503
 XXYZ=              0.0000 YYXZ=             -0.0000 ZZXY=              1.9360
 N-N= 2.783237987339D+02 E-N=-1.311164452127D+03  KE= 3.221159870321D+02
 Symmetry A'   KE= 3.105965396518D+02
 Symmetry A"   KE= 1.151944738033D+01
  Exact polarizability:   0.000   0.000   0.000   0.000   0.000   0.000
 Approx polarizability:  99.619   3.369 112.802   0.000  -0.000  49.680
 No NMR shielding tensors so no spin-rotation constants.
 Leave Link  601 at Sat Aug 28 00:51:12 2021, MaxMem= 17179869184 cpu:        74.4
 (Enter /public3/home/sc51754/softwares/g09e01/l701.exe)
 Compute integral second derivatives.
 ... and contract with generalized density number  0.
 Leave Link  701 at Sat Aug 28 00:51:12 2021, MaxMem= 17179869184 cpu:        42.2
 (Enter /public3/home/sc51754/softwares/g09e01/l702.exe)
 L702 exits ... SP integral derivatives will be done elsewhere.
 Leave Link  702 at Sat Aug 28 00:51:13 2021, MaxMem= 17179869184 cpu:         0.7
 (Enter /public3/home/sc51754/softwares/g09e01/l703.exe)
 Compute integral second derivatives, UseDBF=F ICtDFT=           0.
 Integral derivatives from FoFJK, PRISM(SPDF).
 Calling FoFJK, ICntrl=    100147 FMM=F ISym2X=1 I1Cent= 0 IOpClX= 0 NMat=1 NMatS=1 NMatT=0.
 FoFJK:  IHMeth= 1 ICntrl=  100147 DoSepK=F KAlg= 0 I1Cent=   0 FoldK=F
 IRaf=         0 NMat=   1 IRICut=       1 DoRegI=T DoRafI=F ISym2E= 1.
 FoFCou: FMM=F IPFlag=           0 FMFlag=      100000 FMFlg1=         800
         NFxFlg=           0 DoJE=F BraDBF=F KetDBF=F FulRan=T
         wScrn=  0.000000 ICntrl=  100147 IOpCl=  0 I1Cent=           0 NGrid=           0
         NMat0=    1 NMatS0=      1 NMatT0=    0 NMatD0=    1 NMtDS0=    0 NMtDT0=    0
 Petite list used in FoFCou.
 Leave Link  703 at Sat Aug 28 00:51:21 2021, MaxMem= 17179869184 cpu:       518.5
 (Enter /public3/home/sc51754/softwares/g09e01/l716.exe)
 Dipole        =-5.42874645D-02-1.30072354D+00 7.70558546D-33
 Polarizability= 0.00000000D+00 0.00000000D+00 0.00000000D+00
                 0.00000000D+00 0.00000000D+00 0.00000000D+00
 ***** Axes restored to original set *****
 -------------------------------------------------------------------
 Center     Atomic                   Forces (Hartrees/Bohr)
 Number     Number              X              Y              Z
 -------------------------------------------------------------------
      1        8          -0.097521065   -0.063032124   -0.000000000
      2        7           0.005494097    0.022669405   -0.000000000
      3        6           0.049157845    0.047135195    0.000000000
      4        6           0.004854151   -0.018995054    0.000000000
      5        6          -0.012775845   -0.015751693    0.000000000
      6        6           0.006442609    0.008064636   -0.000000000
      7        6          -0.008668905    0.003489249   -0.000000000
      8        1           0.055289592    0.015877960    0.000000000
      9        1          -0.001427677    0.000254252   -0.000000000
     10        1           0.000713221    0.000016990    0.000000000
     11        1          -0.000060536   -0.000600524    0.000000000
     12        1          -0.001497487    0.000871709   -0.000000000
 -------------------------------------------------------------------
 Cartesian Forces:  Max     0.097521065 RMS     0.025259940
 Force constants in Cartesian coordinates: 
                1             2             3             4             5 
      1  0.569957D-01
      2  0.138769D-01  0.436388D+00
      3  0.000000D+00  0.000000D+00  0.856742D-01
      4 -0.161904D-01 -0.325162D-01  0.000000D+00  0.565216D+00
      5 -0.114869D+00 -0.478654D-01  0.000000D+00  0.141870D+00  0.660289D+00
      6  0.000000D+00  0.000000D+00  0.189182D-01  0.000000D+00  0.000000D+00
      7 -0.103245D+00  0.186264D-02  0.000000D+00 -0.357362D+00 -0.607070D-01
      8 -0.259380D-01 -0.285792D+00  0.000000D+00 -0.115104D+00 -0.228279D+00
      9  0.000000D+00  0.000000D+00 -0.824751D-01  0.000000D+00  0.000000D+00
     10 -0.422928D-02  0.248955D-01  0.000000D+00 -0.626413D-01 -0.372789D-01
     11  0.610532D-01 -0.581310D-01  0.000000D+00  0.181667D-01  0.827383D-01
     12  0.000000D+00  0.000000D+00  0.163720D-01  0.000000D+00  0.000000D+00
     13  0.616088D-02  0.422133D-03  0.000000D+00 -0.138962D+00 -0.101569D-01
     14  0.241864D-01 -0.401364D-02  0.000000D+00  0.146805D-01 -0.361656D+00
     15  0.000000D+00  0.000000D+00  0.727353D-02  0.000000D+00  0.000000D+00
     16 -0.169404D-01  0.897618D-02  0.000000D+00 -0.222554D-01 -0.535050D-01
     17 -0.127909D-01  0.166924D-01  0.000000D+00 -0.321669D-01 -0.688053D-01
     18  0.000000D+00  0.000000D+00  0.576445D-02  0.000000D+00  0.000000D+00
     19  0.164268D-01 -0.125069D-01  0.000000D+00  0.459062D-01  0.100785D+00
     20 -0.690651D-02 -0.801872D-02  0.000000D+00  0.229207D-01 -0.587163D-01
     21  0.000000D+00  0.000000D+00 -0.235313D-02  0.000000D+00  0.000000D+00
     22  0.565473D-01 -0.422465D-02  0.000000D+00 -0.106310D-01  0.292658D-01
     23  0.616727D-01 -0.484057D-01  0.000000D+00  0.107472D-01  0.468995D-01
     24  0.000000D+00  0.000000D+00 -0.456109D-01  0.000000D+00  0.000000D+00
     25  0.308804D-02 -0.455878D-03  0.000000D+00 -0.462419D-02  0.419868D-02
     26 -0.740113D-03  0.782936D-03  0.000000D+00  0.563312D-02 -0.997080D-03
     27  0.000000D+00  0.000000D+00 -0.250198D-02  0.000000D+00  0.000000D+00
     28 -0.646899D-03 -0.111641D-03  0.000000D+00  0.538544D-02 -0.439611D-02
     29 -0.701375D-03 -0.134401D-02  0.000000D+00 -0.368799D-01 -0.223772D-01
     30  0.000000D+00  0.000000D+00  0.828483D-03  0.000000D+00  0.000000D+00
     31  0.325921D-04  0.249500D-03  0.000000D+00  0.635735D-03 -0.728529D-03
     32  0.178738D-02 -0.661519D-03  0.000000D+00 -0.546458D-03 -0.600762D-03
     33  0.000000D+00  0.000000D+00 -0.118781D-02  0.000000D+00  0.000000D+00
     34  0.200079D-02 -0.467601D-03  0.000000D+00 -0.447699D-02  0.552090D-02
     35 -0.631086D-03  0.368556D-03  0.000000D+00  0.319519D-02 -0.629728D-03
     36  0.000000D+00  0.000000D+00 -0.701908D-03  0.000000D+00  0.000000D+00
                6             7             8             9            10 
      6  0.103269D+00
      7  0.000000D+00  0.808178D+00
      8  0.000000D+00 -0.224954D-01  0.682429D+00
      9 -0.820396D-01  0.000000D+00  0.000000D+00  0.212409D+00
     10  0.000000D+00 -0.291184D+00  0.925138D-01  0.000000D+00  0.772548D+00
     11  0.000000D+00  0.370463D-01 -0.146170D+00  0.000000D+00  0.564154D-01
     12  0.153764D-01  0.000000D+00  0.000000D+00 -0.854840D-01  0.000000D+00
     13  0.000000D+00  0.317401D-01 -0.408517D-01  0.000000D+00 -0.195308D-01
     14  0.000000D+00 -0.126948D+00 -0.328906D-01  0.000000D+00  0.428014D-01
     15 -0.617042D-01  0.000000D+00  0.000000D+00  0.268086D-02  0.000000D+00
     16  0.000000D+00  0.603439D-01  0.279907D-01  0.000000D+00 -0.153793D+00
     17  0.000000D+00  0.883117D-01 -0.465509D-01  0.000000D+00 -0.410735D-01
     18 -0.664896D-02  0.000000D+00  0.000000D+00  0.246106D-02  0.000000D+00
     19  0.000000D+00 -0.932243D-01  0.115764D-01  0.000000D+00  0.415373D-01
     20  0.000000D+00  0.180567D-01  0.349754D-02  0.000000D+00 -0.377363D-01
     21  0.201995D-01  0.000000D+00  0.000000D+00 -0.916218D-02  0.000000D+00
     22  0.000000D+00 -0.404895D-01  0.898039D-01  0.000000D+00  0.460329D-02
     23  0.000000D+00  0.503240D-01  0.510296D-01  0.000000D+00  0.574488D-02
     24 -0.184710D-01  0.000000D+00  0.000000D+00  0.181628D-01  0.000000D+00
     25  0.000000D+00 -0.175349D-01 -0.184758D-01  0.000000D+00 -0.288225D+00
     26  0.000000D+00  0.145195D-01  0.124543D-01  0.000000D+00 -0.134275D+00
     27  0.548157D-02  0.000000D+00  0.000000D+00  0.229639D-02  0.000000D+00
     28  0.000000D+00  0.341861D-02  0.125237D-02  0.000000D+00  0.276227D-03
     29  0.000000D+00  0.137928D-02 -0.411683D-02  0.000000D+00  0.598147D-04
     30 -0.823522D-03  0.000000D+00  0.000000D+00  0.967128D-02  0.000000D+00
     31  0.000000D+00  0.174183D-02 -0.148776D-02  0.000000D+00  0.565861D-02
     32  0.000000D+00 -0.130669D-02 -0.580205D-02  0.000000D+00  0.305423D-01
     33 -0.206754D-02  0.000000D+00  0.000000D+00  0.116901D-01  0.000000D+00
     34  0.000000D+00 -0.238244D-02  0.121584D-02  0.000000D+00 -0.502015D-02
     35  0.000000D+00 -0.431184D-04  0.190410D-03  0.000000D+00 -0.260898D-02
     36  0.851026D-02  0.000000D+00  0.000000D+00 -0.211049D-03  0.000000D+00
               11            12            13            14            15 
     11  0.770242D+00
     12  0.000000D+00  0.132522D+00
     13  0.273736D-01  0.000000D+00  0.804799D+00
     14 -0.654864D-01  0.000000D+00  0.393028D-01  0.729041D+00
     15  0.000000D+00 -0.253003D-02  0.000000D+00  0.000000D+00  0.165525D+00
     16  0.285967D-01  0.000000D+00 -0.673878D-01  0.413301D-01  0.000000D+00
     17 -0.387613D+00  0.000000D+00 -0.206632D-01  0.830703D-01  0.000000D+00
     18  0.000000D+00 -0.661941D-01  0.000000D+00  0.000000D+00  0.782516D-02
     19 -0.844644D-01  0.000000D+00 -0.301492D+00  0.523960D-01  0.000000D+00
     20 -0.232771D-01  0.000000D+00  0.133005D+00 -0.202927D+00  0.000000D+00
     21  0.000000D+00  0.943437D-02  0.000000D+00  0.000000D+00 -0.748206D-01
     22 -0.910363D-02  0.000000D+00 -0.959816D-02 -0.796541D-02  0.000000D+00
     23 -0.199155D-01  0.000000D+00 -0.171904D-01 -0.209570D-01  0.000000D+00
     24  0.000000D+00  0.549573D-02  0.000000D+00  0.000000D+00 -0.327786D-02
     25 -0.132042D+00  0.000000D+00  0.132773D-03  0.209997D-02  0.000000D+00
     26 -0.142037D+00  0.000000D+00  0.424459D-03 -0.144003D-02  0.000000D+00
     27  0.000000D+00 -0.368784D-01  0.000000D+00  0.000000D+00 -0.277401D-03
     28  0.102403D-02  0.000000D+00 -0.308674D+00 -0.106804D+00  0.000000D+00
     29 -0.533715D-03  0.000000D+00 -0.102901D+00 -0.109491D+00  0.000000D+00
     30  0.000000D+00 -0.864610D-03  0.000000D+00  0.000000D+00 -0.473409D-01
     31 -0.182432D-02  0.000000D+00 -0.447628D-02 -0.386142D-02  0.000000D+00
     32 -0.106519D-01  0.000000D+00 -0.395702D-02 -0.747826D-03  0.000000D+00
     33  0.000000D+00  0.707504D-02  0.000000D+00  0.000000D+00  0.710452D-02
     34 -0.224142D-02  0.000000D+00  0.728770D-02  0.287814D-01  0.000000D+00
     35  0.834282D-03  0.000000D+00 -0.480805D-02 -0.125018D-01  0.000000D+00
     36  0.000000D+00  0.567538D-02  0.000000D+00  0.000000D+00 -0.457573D-03
               16            17            18            19            20 
     16  0.769012D+00
     17 -0.458480D-01  0.746415D+00
     18  0.000000D+00  0.000000D+00  0.161059D+00
     19 -0.299290D+00 -0.462843D-01  0.000000D+00  0.692404D+00
     20 -0.121458D+00 -0.187010D+00  0.000000D+00  0.460442D-02  0.812944D+00
     21  0.000000D+00  0.000000D+00 -0.681947D-01  0.000000D+00  0.000000D+00
     22  0.276087D-02  0.584035D-02  0.000000D+00 -0.463404D-02  0.105729D-02
     23  0.895975D-02  0.111811D-01  0.000000D+00 -0.125334D-01  0.582526D-02
     24  0.000000D+00  0.000000D+00 -0.291403D-03  0.000000D+00  0.000000D+00
     25  0.626052D-02  0.227741D-02  0.000000D+00  0.205437D-02  0.874614D-03
     26 -0.298907D-01 -0.104850D-01  0.000000D+00  0.158025D-02 -0.554999D-02
     27  0.000000D+00  0.000000D+00  0.260958D-02  0.000000D+00  0.000000D+00
     28 -0.355570D-02  0.401522D-02  0.000000D+00 -0.173357D-01 -0.142113D-01
     29  0.359545D-02 -0.187463D-02  0.000000D+00  0.167775D-01  0.131478D-01
     30  0.000000D+00  0.000000D+00  0.866460D-02  0.000000D+00  0.000000D+00
     31 -0.279354D+00  0.129766D+00  0.000000D+00 -0.176668D-01  0.180550D-01
     32  0.129429D+00 -0.145844D+00  0.000000D+00 -0.142762D-01  0.136345D-01
     33  0.000000D+00  0.000000D+00 -0.484406D-01  0.000000D+00  0.000000D+00
     34  0.419973D-02 -0.313837D-01  0.000000D+00 -0.646857D-01 -0.182614D-01
     35  0.182407D-02 -0.917671D-02  0.000000D+00 -0.176547D-01 -0.363550D+00
     36  0.000000D+00  0.000000D+00  0.138541D-02  0.000000D+00  0.000000D+00
               21            22            23            24            25 
     21  0.132146D+00
     22  0.000000D+00  0.364205D-02
     23  0.000000D+00 -0.104923D+00 -0.265986D-01
     24  0.272752D-02  0.000000D+00  0.000000D+00  0.434527D-01
     25  0.000000D+00 -0.146453D-02 -0.168361D-02  0.000000D+00  0.299493D+00
     26  0.000000D+00  0.101570D-03  0.826789D-03  0.000000D+00  0.143667D+00
     27  0.938650D-02  0.000000D+00  0.000000D+00 -0.283240D-03  0.000000D+00
     28  0.000000D+00  0.340947D-03  0.855526D-03  0.000000D+00 -0.208518D-04
     29  0.000000D+00 -0.301316D-03 -0.265559D-03  0.000000D+00 -0.142319D-03
     30  0.822903D-02  0.000000D+00  0.000000D+00 -0.149774D-02  0.000000D+00
     31  0.000000D+00  0.942219D-05 -0.637878D-04  0.000000D+00  0.665694D-03
     32  0.000000D+00 -0.837490D-05 -0.594504D-03  0.000000D+00 -0.573156D-03
     33  0.589355D-02  0.000000D+00  0.000000D+00 -0.863458D-03  0.000000D+00
     34  0.000000D+00 -0.108656D-02 -0.190988D-02  0.000000D+00  0.175106D-03
     35  0.000000D+00  0.457598D-03  0.974533D-03  0.000000D+00  0.254985D-03
     36 -0.334858D-01  0.000000D+00  0.000000D+00  0.456825D-03  0.000000D+00
               26            27            28            29            30 
     26  0.145458D+00
     27  0.000000D+00  0.263467D-01
     28 -0.436237D-04  0.000000D+00  0.320908D+00
     29  0.106474D-03  0.000000D+00  0.118845D+00  0.125611D+00
     30  0.000000D+00 -0.148925D-02  0.000000D+00  0.000000D+00  0.297954D-01
     31  0.420719D-03  0.000000D+00 -0.946778D-03  0.927528D-03  0.000000D+00
     32  0.132081D-02  0.000000D+00 -0.785857D-03  0.511057D-03  0.000000D+00
     33  0.000000D+00 -0.517442D-02  0.000000D+00  0.000000D+00 -0.596138D-03
     34 -0.139692D-02  0.000000D+00  0.850025D-03 -0.659478D-03  0.000000D+00
     35 -0.441190D-03  0.000000D+00  0.359945D-03  0.625932D-03  0.000000D+00
     36  0.000000D+00  0.483980D-03  0.000000D+00  0.000000D+00 -0.457661D-02
               31            32            33            34            35 
     31  0.292537D+00
     32 -0.141176D+00  0.148734D+00
     33  0.000000D+00  0.000000D+00  0.300260D-01
     34  0.116324D-02  0.871191D-03  0.000000D+00  0.619752D-01
     35 -0.276890D-03  0.701560D-03  0.000000D+00  0.199310D-01  0.382604D+00
     36  0.000000D+00  0.000000D+00 -0.345918D-02  0.000000D+00  0.000000D+00
               36 
     36  0.263802D-01
 FormGI is forming the generalized inverse of G from B-inverse, IUseBI=4.
 Leave Link  716 at Sat Aug 28 00:51:21 2021, MaxMem= 17179869184 cpu:         9.4
 (Enter /public3/home/sc51754/softwares/g09e01/l103.exe)

 GradGradGradGradGradGradGradGradGradGradGradGradGradGradGradGradGradGrad
 Berny optimization.
 Red2BG is reusing G-inverse.
 Internal  Forces:  Max     0.063994076 RMS     0.012703039
 Search for a saddle point.
 Step number   1 out of a maximum of  100
 All quantities printed in internal units (Hartrees-Bohrs-Radians)
 Second derivative matrix not updated -- analytic derivatives used.
 ITU=  0
 LST/QST climbing along tangent vector
     Eigenvalues ---   -0.08056   0.00154   0.00561   0.01732   0.01875
     Eigenvalues ---    0.02238   0.02490   0.02955   0.03348   0.04376
     Eigenvalues ---    0.04573   0.11022   0.11479   0.12801   0.13769
     Eigenvalues ---    0.15845   0.21222   0.21239   0.24193   0.30015
     Eigenvalues ---    0.34020   0.37565   0.37994   0.38485   0.38660
     Eigenvalues ---    0.44595   0.45677   0.50490   0.53412   0.58575
     Eigenvalues --- 1000.000001000.000001000.000001000.000001000.00000
     Eigenvalues --- 1000.000001000.000001000.000001000.000001000.00000
     Eigenvalues --- 1000.000001000.000001000.000001000.000001000.00000
     Eigenvalues --- 1000.000001000.000001000.000001000.000001000.00000
     Eigenvalues --- 1000.000001000.000001000.000001000.000001000.00000
     Eigenvalues --- 1000.000001000.000001000.00000
 Eigenvectors required to have negative eigenvalues:
                          R2        R5        A4        A3        D22
   1                    0.64836  -0.53434  -0.22379   0.19219   0.17003
                          A1        D8        D21       D10       D19
   1                   -0.15717  -0.15535   0.15410  -0.14455  -0.12896
 QST in optimization variable space.
                        Tangent   TS vect  // Eig F  Eigenval
   1         R1        -0.05117  -0.05117  -0.03283  -0.08056
   2         R2         0.64836   0.64836  -0.00118   0.00154
   3         R3         0.02357   0.02357   0.00604   0.00561
   4         R4         0.01199   0.01199  -0.00056   0.01732
   5         R5        -0.53434  -0.53434   0.00070   0.01875
   6         R6         0.02465   0.02465  -0.00003   0.02238
   7         R7        -0.01159  -0.01159   0.00048   0.02490
   8         R8        -0.00001  -0.00001   0.00033   0.02955
   9         R9        -0.01350  -0.01350   0.00032   0.03348
  10         R10       -0.00129  -0.00129  -0.02612   0.04376
  11         R11        0.01551   0.01551   0.00140   0.04573
  12         R12        0.00034   0.00034  -0.00238   0.11022
  13         R13       -0.00085  -0.00085   0.00567   0.11479
  14         A1        -0.15717  -0.15717  -0.00072   0.12801
  15         A2         0.03160   0.03160   0.00184   0.13769
  16         A3         0.19219   0.19219  -0.02266   0.15845
  17         A4        -0.22379  -0.22379  -0.00196   0.21222
  18         A5         0.00519   0.00519   0.00869   0.21239
  19         A6         0.03734   0.03734  -0.00593   0.24193
  20         A7        -0.04253  -0.04253   0.02164   0.30015
  21         A8         0.01529   0.01529  -0.01356   0.34020
  22         A9        -0.01457  -0.01457  -0.00011   0.37565
  23         A10       -0.00072  -0.00072  -0.00074   0.37994
  24         A11       -0.01141  -0.01141  -0.00178   0.38485
  25         A12        0.00076   0.00076   0.00006   0.38660
  26         A13        0.01064   0.01064   0.00232   0.44595
  27         A14        0.00740   0.00740  -0.00228   0.45677
  28         A15       -0.00159  -0.00159  -0.00170   0.50490
  29         A16       -0.00581  -0.00581   0.00023   0.53412
  30         A17       -0.00035  -0.00035   0.00288   0.58575
  31         A18       -0.00002  -0.00002  -0.000001000.00000
  32         A19        0.00037   0.00037  -0.000001000.00000
  33         D1         0.02035   0.02035  -0.000001000.00000
  34         D2         0.03140   0.03140  -0.000001000.00000
  35         D3        -0.01734  -0.01734  -0.000001000.00000
  36         D4        -0.02902  -0.02902  -0.000001000.00000
  37         D5        -0.01925  -0.01925   0.000001000.00000
  38         D6        -0.03092  -0.03092  -0.000001000.00000
  39         D7         0.11524   0.11524   0.000001000.00000
  40         D8        -0.15535  -0.15535   0.000001000.00000
  41         D9         0.12603   0.12603   0.000001000.00000
  42         D10       -0.14455  -0.14455   0.000001000.00000
  43         D11       -0.04932  -0.04932   0.000001000.00000
  44         D12       -0.01172  -0.01172   0.000001000.00000
  45         D13       -0.03754  -0.03754   0.000001000.00000
  46         D14        0.00005   0.00005  -0.000001000.00000
  47         D15        0.02161   0.02161  -0.000001000.00000
  48         D16        0.04431   0.04431  -0.000001000.00000
  49         D17       -0.01703  -0.01703  -0.000001000.00000
  50         D18        0.00567   0.00567  -0.000001000.00000
  51         D19       -0.12896  -0.12896   0.000001000.00000
  52         D20       -0.11303  -0.11303   0.000001000.00000
  53         D21        0.15410   0.15410  -0.000001000.00000
  54         D22        0.17003   0.17003   0.000001000.00000
  55         D23        0.05572   0.05572  -0.000001000.00000
  56         D24        0.03964   0.03964   0.000001000.00000
  57         D25        0.03291   0.03291  -0.000001000.00000
  58         D26        0.01683   0.01683   0.000001000.00000
[...]
     31  0.280179D+00
     32 -0.145625D+00  0.161118D+00
     33  0.000000D+00  0.000000D+00  0.301999D-01
     34  0.118087D-02  0.757952D-03  0.000000D+00  0.624519D-01
     35 -0.294068D-03  0.707239D-03  0.000000D+00  0.209965D-01  0.384889D+00
     36  0.000000D+00  0.000000D+00 -0.349126D-02  0.000000D+00  0.000000D+00
               36 
     36  0.254272D-01
 FormGI is forming the generalized inverse of G from B-inverse, IUseBI=4.
 Leave Link  716 at Sat Aug 28 00:53:25 2021, MaxMem= 17179869184 cpu:        13.8
 (Enter /public3/home/sc51754/softwares/g09e01/l103.exe)

 GradGradGradGradGradGradGradGradGradGradGradGradGradGradGradGradGradGrad
 Berny optimization.
 Red2BG is reusing G-inverse.
 Internal  Forces:  Max     0.000075838 RMS     0.000014044
 Search for a saddle point.
 Step number   1 out of a maximum of    2
 All quantities printed in internal units (Hartrees-Bohrs-Radians)
 Swapping is turned off.
 Second derivative matrix not updated -- analytic derivatives used.
 ITU=  0
     Eigenvalues ---   -0.11979   0.00234   0.01743   0.01780   0.02217
     Eigenvalues ---    0.02388   0.02624   0.03022   0.03568   0.05885
     Eigenvalues ---    0.10892   0.11465   0.12911   0.13200   0.14486
     Eigenvalues ---    0.15941   0.20811   0.21440   0.26393   0.31871
     Eigenvalues ---    0.35430   0.37847   0.38252   0.38776   0.38795
     Eigenvalues ---    0.44097   0.45685   0.50973   0.56374   0.59369
 Eigenvectors required to have negative eigenvalues:
                          R2        R5        A4        A3        A1
   1                    0.70245  -0.59503  -0.24232   0.19522  -0.15118
                          R1        R3        A7        A2        R6
   1                   -0.12350   0.06582  -0.05882   0.04709   0.04125
 Angle between quadratic step and forces=  27.66 degrees.
 Linear search not attempted -- option 19 set.
 Iteration  1 RMS(Cart)=  0.00005149 RMS(Int)=  0.00000000
 Iteration  2 RMS(Cart)=  0.00000000 RMS(Int)=  0.00000000
 ITry= 1 IFail=0 DXMaxC= 1.84D-04 DCOld= 1.00D+10 DXMaxT= 3.00D-01 DXLimC= 3.00D+00 Rises=F
 ClnCor:  largest displacement from symmetrization is 3.19D-13 for atom    12.
 Variable       Old X    -DE/DX   Delta X   Delta X   Delta X     New X
                                 (Linear)    (Quad)   (Total)
    R1        2.40568   0.00000   0.00000  -0.00002  -0.00002   2.40566
    R2        2.54671  -0.00001   0.00000  -0.00010  -0.00010   2.54662
    R3        2.53770   0.00008   0.00000   0.00022   0.00022   2.53792
    R4        2.50162   0.00001   0.00000   0.00002   0.00002   2.50164
    R5        2.41358  -0.00002   0.00000  -0.00019  -0.00019   2.41339
    R6        2.63996   0.00003   0.00000   0.00005   0.00005   2.64001
    R7        2.58743  -0.00001   0.00000  -0.00002  -0.00002   2.58741
    R8        2.02321  -0.00000   0.00000  -0.00000  -0.00000   2.02321
    R9        2.58627  -0.00001   0.00000  -0.00002  -0.00002   2.58625
   R10        2.02746   0.00000   0.00000   0.00000   0.00000   2.02747
   R11        2.64212   0.00002   0.00000   0.00002   0.00002   2.64214
   R12        2.03048  -0.00000   0.00000  -0.00000  -0.00000   2.03048
   R13        2.02339  -0.00000   0.00000  -0.00000  -0.00000   2.02339
    A1        1.30602   0.00001   0.00000   0.00002   0.00002   1.30603
    A2        2.15331  -0.00002   0.00000  -0.00011  -0.00011   2.15321
    A3        1.30660  -0.00001   0.00000  -0.00004  -0.00004   1.30656
    A4        2.82327   0.00003   0.00000   0.00014   0.00014   2.82341
    A5        1.83976  -0.00003   0.00000  -0.00012  -0.00012   1.83964
    A6        2.34397   0.00002   0.00000   0.00006   0.00006   2.34403
    A7        2.09946   0.00001   0.00000   0.00007   0.00007   2.09952
    A8        2.03173  -0.00002   0.00000  -0.00005  -0.00005   2.03168
    A9        2.10989   0.00000   0.00000  -0.00003  -0.00003   2.10986
   A10        2.14157   0.00001   0.00000   0.00008   0.00008   2.14165
   A11        2.08386  -0.00000   0.00000   0.00001   0.00001   2.08387
   A12        2.05375   0.00001   0.00000   0.00004   0.00004   2.05379
   A13        2.14557  -0.00000   0.00000  -0.00005  -0.00005   2.14552
   A14        2.13179   0.00001   0.00000   0.00001   0.00001   2.13180
   A15        2.07728  -0.00000   0.00000   0.00001   0.00001   2.07729
   A16        2.07412  -0.00000   0.00000  -0.00003  -0.00003   2.07409
   A17        2.06621   0.00002   0.00000   0.00007   0.00007   2.06628
   A18        2.10298  -0.00001   0.00000  -0.00004  -0.00004   2.10294
   A19        2.11399  -0.00001   0.00000  -0.00003  -0.00003   2.11396
    D1        0.00000   0.00000   0.00000   0.00000   0.00000   0.00000
    D2        3.14159   0.00000   0.00000  -0.00000   0.00000   3.14159
    D3        3.14159  -0.00000   0.00000   0.00000   0.00000   3.14159
    D4        0.00000  -0.00000   0.00000   0.00000   0.00000   0.00000
    D5       -0.00000  -0.00000   0.00000  -0.00000   0.00000   0.00000
    D6        3.14159  -0.00000   0.00000   0.00000   0.00000   3.14159
    D7       -0.00000  -0.00000   0.00000  -0.00000   0.00000   0.00000
    D8        3.14159  -0.00000   0.00000   0.00000   0.00000   3.14159
    D9        3.14159  -0.00000   0.00000   0.00000   0.00000   3.14159
   D10       -0.00000  -0.00000   0.00000   0.00000   0.00000   0.00000
   D11        3.14159   0.00000   0.00000  -0.00000   0.00000   3.14159
   D12        0.00000   0.00000   0.00000  -0.00000   0.00000   0.00000
   D13       -0.00000   0.00000   0.00000  -0.00000   0.00000   0.00000
   D14        3.14159   0.00000   0.00000  -0.00000   0.00000   3.14159
   D15       -0.00000  -0.00000   0.00000  -0.00000   0.00000   0.00000
   D16        3.14159  -0.00000   0.00000  -0.00000   0.00000   3.14159
   D17        3.14159  -0.00000   0.00000  -0.00000   0.00000   3.14159
   D18        0.00000   0.00000   0.00000  -0.00000  -0.00000   0.00000
   D19       -0.00000   0.00000   0.00000  -0.00000   0.00000   0.00000
   D20        3.14159   0.00000   0.00000  -0.00000   0.00000   3.14159
   D21        3.14159   0.00000   0.00000  -0.00000   0.00000   3.14159
   D22       -0.00000   0.00000   0.00000  -0.00000   0.00000   0.00000
   D23        0.00000  -0.00000   0.00000   0.00000  -0.00000   0.00000
   D24        3.14159  -0.00000   0.00000   0.00000   0.00000   3.14159
   D25        3.14159  -0.00000   0.00000   0.00000   0.00000   3.14159
   D26        0.00000  -0.00000   0.00000   0.00000   0.00000   0.00000
         Item               Value     Threshold  Converged?
 Maximum Force            0.000076     0.000450     YES
 RMS     Force            0.000014     0.000300     YES
 Maximum Displacement     0.000184     0.001800     YES
 RMS     Displacement     0.000051     0.001200     YES
 Predicted change in Energy=-1.988691D-08
 Optimization completed.
    -- Stationary point found.
                           ----------------------------
                           !   Optimized Parameters   !
                           ! (Angstroms and Degrees)  !
 --------------------------                            --------------------------
 ! Name  Definition              Value          Derivative Info.                !
 --------------------------------------------------------------------------------
 ! R1    R(1,3)                  1.273          -DE/DX =    0.0                 !
 ! R2    R(1,8)                  1.3477         -DE/DX =    0.0                 !
 ! R3    R(2,3)                  1.3429         -DE/DX =    0.0001              !
 ! R4    R(2,5)                  1.3238         -DE/DX =    0.0                 !
 ! R5    R(2,8)                  1.2772         -DE/DX =    0.0                 !
 ! R6    R(3,4)                  1.397          -DE/DX =    0.0                 !
 ! R7    R(4,6)                  1.3692         -DE/DX =    0.0                 !
 ! R8    R(4,9)                  1.0706         -DE/DX =    0.0                 !
 ! R9    R(5,7)                  1.3686         -DE/DX =    0.0                 !
 ! R10   R(5,10)                 1.0729         -DE/DX =    0.0                 !
 ! R11   R(6,7)                  1.3981         -DE/DX =    0.0                 !
 ! R12   R(6,11)                 1.0745         -DE/DX =    0.0                 !
 ! R13   R(7,12)                 1.0707         -DE/DX =    0.0                 !
 ! A1    A(3,1,8)               74.8292         -DE/DX =    0.0                 !
 ! A2    A(3,2,5)              123.3757         -DE/DX =    0.0                 !
 ! A3    A(3,2,8)               74.8626         -DE/DX =    0.0                 !
 ! A4    A(5,2,8)              161.7617         -DE/DX =    0.0                 !
 ! A5    A(1,3,2)              105.4103         -DE/DX =    0.0                 !
 ! A6    A(1,3,4)              134.2996         -DE/DX =    0.0                 !
 ! A7    A(2,3,4)              120.2901         -DE/DX =    0.0                 !
 ! A8    A(3,4,6)              116.4095         -DE/DX =    0.0                 !
 ! A9    A(3,4,9)              120.8875         -DE/DX =    0.0                 !
 ! A10   A(6,4,9)              122.7029         -DE/DX =    0.0                 !
 ! A11   A(2,5,7)              119.3967         -DE/DX =    0.0                 !
 ! A12   A(2,5,10)             117.6712         -DE/DX =    0.0                 !
 ! A13   A(7,5,10)             122.9321         -DE/DX =    0.0                 !
 ! A14   A(4,6,7)              122.1427         -DE/DX =    0.0                 !
 ! A15   A(4,6,11)             119.0191         -DE/DX =    0.0                 !
 ! A16   A(7,6,11)             118.8382         -DE/DX =    0.0                 !
 ! A17   A(5,7,6)              118.3854         -DE/DX =    0.0                 !
 ! A18   A(5,7,12)             120.4919         -DE/DX =    0.0                 !
 ! A19   A(6,7,12)             121.1228         -DE/DX =    0.0                 !
 ! D1    D(8,1,3,2)              0.0            -DE/DX =    0.0                 !
 ! D2    D(8,1,3,4)            180.0            -DE/DX =    0.0                 !
 ! D3    D(5,2,3,1)            180.0            -DE/DX =    0.0                 !
 ! D4    D(5,2,3,4)              0.0            -DE/DX =    0.0                 !
 ! D5    D(8,2,3,1)              0.0            -DE/DX =    0.0                 !
 ! D6    D(8,2,3,4)            180.0            -DE/DX =    0.0                 !
 ! D7    D(3,2,5,7)              0.0            -DE/DX =    0.0                 !
 ! D8    D(3,2,5,10)           180.0            -DE/DX =    0.0                 !
 ! D9    D(8,2,5,7)            180.0            -DE/DX =    0.0                 !
 ! D10   D(8,2,5,10)             0.0            -DE/DX =    0.0                 !
 ! D11   D(1,3,4,6)            180.0            -DE/DX =    0.0                 !
 ! D12   D(1,3,4,9)              0.0            -DE/DX =    0.0                 !
 ! D13   D(2,3,4,6)              0.0            -DE/DX =    0.0                 !
 ! D14   D(2,3,4,9)            180.0            -DE/DX =    0.0                 !
 ! D15   D(3,4,6,7)              0.0            -DE/DX =    0.0                 !
 ! D16   D(3,4,6,11)           180.0            -DE/DX =    0.0                 !
 ! D17   D(9,4,6,7)            180.0            -DE/DX =    0.0                 !
 ! D18   D(9,4,6,11)             0.0            -DE/DX =    0.0                 !
 ! D19   D(2,5,7,6)              0.0            -DE/DX =    0.0                 !
 ! D20   D(2,5,7,12)           180.0            -DE/DX =    0.0                 !
 ! D21   D(10,5,7,6)           180.0            -DE/DX =    0.0                 !
 ! D22   D(10,5,7,12)            0.0            -DE/DX =    0.0                 !
 ! D23   D(4,6,7,5)              0.0            -DE/DX =    0.0                 !
 ! D24   D(4,6,7,12)           180.0            -DE/DX =    0.0                 !
 ! D25   D(11,6,7,5)           180.0            -DE/DX =    0.0                 !
 ! D26   D(11,6,7,12)            0.0            -DE/DX =    0.0                 !
 --------------------------------------------------------------------------------
 GradGradGradGradGradGradGradGradGradGradGradGradGradGradGradGradGradGrad

 Leave Link  103 at Sat Aug 28 00:53:26 2021, MaxMem= 17179869184 cpu:        53.4
 (Enter /public3/home/sc51754/softwares/g09e01/l9999.exe)
 1\1\GINC-Q2007\Freq\RBHandHLYP\Gen\C5H5N1O1\SC51754\28-Aug-2021\0\\#P 
 Geom=AllCheck Guess=TCheck SCRF=Check GenChk RBHandHLYP/ChkBas Freq\\H
 Y_BHandHLYP_PC2_OPT_FREQ\\0,1\O,0.0595174771,2.5457651192,0.\N,-0.8342
 013394,0.6659292733,0.\C,0.3465926372,1.3055263632,0.\C,1.5406943989,0
 .5804427673,0.\C,-0.9480303834,-0.6529656122,0.\C,1.4247532809,-0.7838
 47092,0.\C,0.1821695733,-1.4247865439,0.\H,-1.1281434613,1.9088553774,
 0.\H,2.4873632423,1.080525033,0.\H,-1.9375319672,-1.0676634534,0.\H,2.
 3168311109,-1.3827696664,0.\H,0.1105081307,-2.4931158654,0.\\Version=E
 M64L-G09RevE.01\State=1-A'\HF=-323.3931648\RMSD=3.735e-09\RMSF=2.583e-
 05\ZeroPoint=0.0918879\Thermal=0.0967074\Dipole=-0.0256092,-1.4483245,
 0.\DipoleDeriv=-0.5643431,0.0194486,0.,0.1748791,-1.8202951,0.,0.,0.,-
 0.423547,-0.3499516,-0.3966895,0.,0.222552,-1.1335796,0.,0.,0.,-0.2454
 575,0.2034227,-0.4781633,0.,-0.2525708,1.8710007,0.,0.,0.,0.2597628,-0
 .0216839,0.5420352,0.,-0.1245667,-0.7112516,0.,0.,0.,-0.2031923,0.5330
 568,0.1343889,0.,-0.573983,0.4798716,0.,0.,0.,0.0518788,0.4511005,0.17
 45752,0.,0.271566,0.5530177,0.,0.,0.,-0.0495293,-0.7402979,-0.1844816,
 0.,0.1021595,-0.1749325,0.,0.,0.,-0.2266478,0.4422615,0.2173084,0.,0.1
 988222,0.8335563,0.,0.,0.,0.2505103,0.0039576,-0.0341822,0.,-0.0363765
 ,0.05133,0.,0.,0.,0.1658176,-0.0092847,-0.0566472,0.,-0.0347004,0.0572
 792,0.,0.,0.,0.1257866,-0.0162631,0.0725171,0.,0.0729128,0.0440479,0.,
 0.,0.,0.1236538,0.0680254,-0.0101096,0.,-0.0206943,-0.0500448,0.,0.,0.
 ,0.1709642\Polar=71.6295169,0.2200454,84.7281184,0.,0.,37.0978219\PG=C
 S [SG(C5H5N1O1)]\NImag=1\\0.08279234,-0.01611819,0.65603603,0.,0.,0.05
 939305,-0.00836844,-0.06392270,0.,0.52877506,-0.17747204,-0.14355662,0
 .,0.13008354,0.76843803,0.,0.,0.03939991,0.,0.,0.10228942,-0.11208661,
 0.06316458,0.,-0.28499700,-0.01393038,0.,0.76165206,0.02710933,-0.4501
 9353,0.,-0.07602332,-0.21002800,0.,-0.11826241,0.78258772,0.,0.,-0.081
 10013,0.,0.,-0.08865452,0.,0.,0.21150200,-0.00779042,0.02480828,0.,-0.
 05264661,-0.02686493,0.,-0.27942089,0.07640682,0.,0.76845877,0.0673681
 2,-0.03081873,0.,0.01696306,0.08098139,0.,0.03250504,-0.15328884,0.,0.
 07076294,0.74361030,0.,0.,0.01467756,0.,0.,0.00975783,0.,0.,-0.0814233
 9,0.,0.,0.12855262,0.00923764,-0.00060612,0.,-0.15873619,-0.02789753,0
 .,0.03631611,-0.03108506,0.,-0.01437893,0.02566739,0.,0.83319339,0.028
 64036,0.00238397,0.,-0.00596163,-0.37106299,0.,-0.11915451,-0.02266014
 ,0.,0.03549361,-0.06494571,0.,0.03734280,0.72500125,0.,0.,0.00763084,0
 .,0.,-0.05815563,0.,0.,0.00020312,0.,0.,-0.00105537,0.,0.,0.16495624,-
 0.02357245,0.00313135,0.,-0.02362289,-0.05421150,0.,0.06210604,0.02849
 180,0.,-0.15071441,0.01247916,0.,-0.06475028,0.04515553,0.,0.73446121,
 -0.02311777,0.01216563,0.,-0.02528628,-0.06603302,0.,0.08615781,-0.050
 61039,0.,-0.05784446,-0.39023661,0.,-0.01581012,0.07979953,0.,-0.04850
 196,0.75230345,0.,0.,0.00584949,0.,0.,-0.00657402,0.,0.,0.00089990,0.,
 0.,-0.06235255,0.,0.,0.00672344,0.,0.,0.16306542,0.02627820,-0.0060512
 8,0.,0.04314585,0.10002323,0.,-0.09290057,0.01308548,0.,0.03569797,-0.
 08497459,0.,-0.31163476,0.06120822,0.,-0.27580105,-0.03126372,0.,0.676
 48798,-0.00704065,-0.01081188,0.,0.02735622,-0.06793884,0.,0.01514282,
 0.00473124,0.,-0.03575352,-0.01868879,0.,0.13940776,-0.20588199,0.,-0.
 10808658,-0.17907249,0.,-0.01792631,0.81410726,0.,0.,-0.00242465,0.,0.
 ,0.01938269,0.,0.,-0.00897211,0.,0.,0.00897246,0.,0.,-0.07258289,0.,0.
 ,-0.06959958,0.,0.,0.12859589,0.02909209,-0.00537713,0.,-0.03850782,0.
 06703290,0.,-0.07566292,0.09736989,0.,0.00322522,-0.01353595,0.,-0.008
 60398,-0.00942240,0.,0.00479213,0.00749816,0.,-0.00629398,0.00105085,0
 .,0.09417893,0.10212160,-0.03335641,0.,0.02729759,0.02805833,0.,0.0366
 7659,0.09383144,0.,0.01061052,-0.02661748,0.,-0.02176734,-0.02262721,0
 .,0.01269278,0.01763782,0.,-0.01934493,0.00726396,0.,-0.14534493,-0.06
 511886,0.,0.,-0.03915418,0.,0.,-0.03182486,0.,0.,0.02495841,0.,0.,0.00
 613198,0.,0.,-0.00660979,0.,0.,-0.00061341,0.,0.,0.00479607,0.,0.,0.04
 499064,0.00251697,0.00100568,0.,-0.00379661,0.00359025,0.,-0.01783091,
 -0.01779253,0.,-0.30425480,-0.12350493,0.,-0.00017770,0.00233545,0.,0.
 00438265,0.00104261,0.,0.00260861,0.00058925,0.,-0.00158835,-0.0013755
 8,0.,0.31731816,-0.00227967,0.00020582,0.,0.00529667,-0.00116128,0.,0.
 01613315,0.01429494,0.,-0.12435657,-0.12767127,0.,0.00050652,-0.001698
 96,0.,-0.03082566,-0.00922935,0.,0.00130599,-0.00511942,0.,0.00068265,
 0.00079812,0.,0.13456216,0.12847183,0.,0.,-0.00246430,0.,0.,0.00641950
 ,0.,0.,0.00184610,0.,0.,-0.03513875,0.,0.,-0.00032644,0.,0.,0.00188066
 ,0.,0.,0.00938825,0.,0.,-0.00031625,0.,0.,0.02528566,-0.00077153,-0.00
 048413,0.,0.00343759,-0.00489753,0.,0.00336451,0.00140790,0.,0.0001908
 4,0.00078009,0.,-0.32340426,-0.10148442,0.,-0.00304786,0.00381405,0.,-
 0.01507590,-0.01320422,0.,0.00041282,0.00087680,0.,-0.00003391,-0.0000
 3426,0.,0.33500833,0.00005032,-0.00208263,0.,-0.03935650,-0.01631642,0
 .,0.00301471,-0.00205028,0.,-0.00016445,-0.00059992,0.,-0.09699305,-0.
 10442304,0.,0.00362410,-0.00215257,0.,0.01653079,0.01377027,0.,-0.0003
 5195,-0.00090785,0.,-0.00017254,0.00016422,0.,0.11361864,0.11349634,0.
 ,0.,0.00031048,0.,0.,0.00058157,0.,0.,0.00990471,0.,0.,-0.00056533,0.,
 0.,-0.04681792,0.,0.,0.00865090,0.,0.,0.00803794,0.,0.,-0.00253188,0.,
 0.,-0.00176256,0.,0.,0.02924699,0.00012676,0.00029830,0.,0.00061448,-0
 .00121073,0.,0.00166598,-0.00205207,0.,0.00660125,-0.00270404,0.,-0.00
 490221,-0.00327969,0.,-0.26741843,0.13484334,0.,-0.01791648,0.01871136
 ,0.,0.00002166,-0.00003161,0.,0.00074800,0.00039083,0.,-0.00090095,0.0
 0095306,0.,0.28017905,0.00182670,-0.00010649,0.,-0.00042042,-0.0004136
 8,0.,-0.00125396,-0.00654541,0.,0.02912809,-0.01268637,0.,-0.00388074,
 -0.00061742,0.,0.13433112,-0.15598567,0.,-0.01351601,0.01316703,0.,-0.
 00015245,-0.00052297,0.,-0.00046869,0.00135501,0.,-0.00072691,0.000531
 04,0.,-0.14562468,0.16111769,0.,0.,-0.00138542,0.,0.,-0.00097442,0.,0.
 ,0.01137267,0.,0.,0.00704326,0.,0.,0.00660796,0.,0.,-0.04835937,0.,0.,
 0.00592613,0.,0.,-0.00089565,0.,0.,-0.00538333,0.,0.,-0.00066046,0.,0.
 ,0.03019989,0.00254544,0.00015135,0.,-0.00529742,0.00575472,0.,-0.0022
 0581,0.00134417,0.,-0.00496800,-0.00180629,0.,0.00784117,0.02912668,0.
 ,0.00318534,-0.03153166,0.,-0.06459588,-0.02024698,0.,-0.00106580,-0.0
 0241149,0.,0.00010789,-0.00138180,0.,0.00082032,-0.00075314,0.,0.00118
 087,0.00075795,0.,0.06245188,-0.00108811,0.00013483,0.,0.00397377,-0.0
 0096690,0.,-0.00019342,-0.00006875,0.,-0.00222633,0.00096202,0.,-0.004
 88451,-0.01326729,0.,0.00171985,-0.00858632,0.,-0.01907686,-0.36552636
 ,0.,0.00055034,0.00156111,0.,0.00018886,-0.00040966,0.,0.00033400,0.00
 057083,0.,-0.00029407,0.00070724,0.,0.02099649,0.38488924,0.,0.,-0.000
 73264,0.,0.,0.00835253,0.,0.,-0.00053677,0.,0.,0.00539967,0.,0.,-0.000
 57355,0.,0.,0.00042911,0.,0.,-0.03152020,0.,0.,0.00106891,0.,0.,0.0005
 7147,0.,0.,-0.00439444,0.,0.,-0.00349126,0.,0.,0.02542719\\0.00003167,
 0.00001195,0.,0.00011047,-0.00000520,0.,-0.00007470,-0.00003186,0.,-0.
 00004059,0.00002068,0.,-0.00001028,0.00002282,0.,-0.00000923,-0.000013
 20,0.,0.00001686,-0.00001002,0.,-0.00002501,0.00000526,0.,0.00000277,-
 0.00000421,0.,-0.00000212,0.00000515,0.,0.00000007,-0.00000066,0.,0.00
 000010,-0.00000072,0.\\\@


 IF IT HAPPENS, IT MUST BE POSSIBLE.

 -- THE UNNAMED LAW FROM PAUL DICKSON'S 
    "THE OFFICIAL RULES"
 Job cpu time:       0 days  0 hours 39 minutes 11.8 seconds.
 File lengths (MBytes):  RWF=     81 Int=      0 D2E=      0 Chk=      7 Scr=      1
 Normal termination of Gaussian 09 at Sat Aug 28 00:53:26 2021.
