 Entering Gaussian System, Link 0=g09
 AtFile(1): pc-2.gbs
            -H     0
            S    4   1.00
                  0.754230D+02           0.240650D-02
                  0.113500D+02           0.184870D-01
                  0.259930D+01           0.897420D-01
                  0.735130D+00           0.281110D+00
            S    1   1.00
                  0.231670D+00           0.100000D+01
            S    1   1.00
                  0.741470D-01           0.100000D+01
            P    1   1.00
                  0.160000D+01           0.100000D+01
            P    1   1.00
                  0.450000D+00           0.100000D+01
            D    1   1.00
                  0.125000D+01           0.100000D+01
            ****
            -C     0
            S    7   1.00
                  0.785710D+04           0.568250D-03
                  0.117870D+04           0.439150D-02
                  0.268320D+03           0.225040D-01
                  0.759480D+02           0.866530D-01
                  0.245590D+02           0.244050D+00
                  0.862120D+01           0.441480D+00
                  0.312780D+01           0.353320D+00
            S    7   1.00
                  0.117870D+04          -0.594920D-06
                  0.268320D+03          -0.627480D-04
                  0.759480D+02          -0.757730D-03
                  0.245590D+02          -0.733080D-02
                  0.862120D+01          -0.389320D-01
                  0.312780D+01          -0.889080D-01
                  0.822020D+00           0.216890D+00
            S    1   1.00
                  0.330170D+00           0.100000D+01
            S    1   1.00
                  0.114630D+00           0.100000D+01
            P    4   1.00
                  0.337750D+02           0.602940D-02
                  0.767660D+01           0.432280D-01
                  0.223570D+01           0.163010D+00
                  0.764470D+00           0.365040D+00
            P    1   1.00
                  0.262320D+00           0.100000D+01
            P    1   1.00
                  0.846380D-01           0.100000D+01
            D    1   1.00
                  0.140000D+01           0.100000D+01
            D    1   1.00
                  0.450000D+00           0.100000D+01
            F    1   1.00
                  0.950000D+00           0.100000D+01
            ****
            -N     0
            S    7   1.00
                  0.111010D+05           0.545700D-03
                  0.166530D+04           0.421810D-02
                  0.379080D+03           0.216450D-01
                  0.107300D+03           0.837760D-01
                  0.347470D+02           0.238810D+00
                  0.122490D+02           0.439940D+00
                  0.447430D+01           0.363640D+00
            S    7   1.00
                  0.166530D+04          -0.150060D-05
                  0.379080D+03          -0.587530D-04
                  0.107300D+03          -0.774530D-03
                  0.347470D+02          -0.721610D-02
                  0.122490D+02          -0.393380D-01
                  0.447430D+01          -0.906110D-01
                  0.124040D+01           0.198820D+00
            S    1   1.00
                  0.487430D+00           0.100000D+01
            S    1   1.00
                  0.164840D+00           0.100000D+01
            P    4   1.00
                  0.479340D+02           0.617060D-02
                  0.109990D+02           0.442600D-01
                  0.324720D+01           0.168250D+00
                  0.111140D+01           0.368480D+00
            P    1   1.00
                  0.379880D+00           0.100000D+01
            P    1   1.00
                  0.120680D+00           0.100000D+01
            D    1   1.00
                  0.180000D+01           0.100000D+01
            D    1   1.00
                  0.550000D+00           0.100000D+01
            F    1   1.00
                  0.102000D+01           0.100000D+01
            ****
            -O     0
            S    7   1.00
                  0.147820D+05           0.535190D-03
                  0.221730D+04           0.413750D-02
                  0.504740D+03           0.212450D-01
                  0.142870D+03           0.824530D-01
                  0.463000D+02           0.236710D+00
                  0.163370D+02           0.440390D+00
                  0.598280D+01           0.364650D+00
            S    7   1.00
                  0.221730D+04          -0.192750D-05
                  0.504740D+03          -0.579640D-04
                  0.142870D+03          -0.794940D-03
                  0.463000D+02          -0.731250D-02
                  0.163370D+02          -0.405740D-01
                  0.598280D+01          -0.915940D-01
                  0.167180D+01           0.209400D+00
            S    1   1.00
                  0.646620D+00           0.100000D+01
            S    1   1.00
                  0.216690D+00           0.100000D+01
            P    4   1.00
                  0.604240D+02           0.689490D-02
                  0.139350D+02           0.490050D-01
                  0.415310D+01           0.182550D+00
                  0.141580D+01           0.376330D+00
            P    1   1.00
                  0.475490D+00           0.100000D+01
            P    1   1.00
                  0.145290D+00           0.100000D+01
            D    1   1.00
                  0.220000D+01           0.100000D+01
            D    1   1.00
                  0.650000D+00           0.100000D+01
            F    1   1.00
                  0.110000D+01           0.100000D+01
            ****
 Initial command:
 /public3/home/sc51754/softwares/g09e01/l1.exe "./Gau-43638.inp" -scrdir="./"
 Entering Link 1 = /public3/home/sc51754/softwares/g09e01/l1.exe PID=     43639.
  
 Copyright (c) 1988,1990,1992,1993,1995,1998,2003,2009,2015,
            Gaussian, Inc.  All Rights Reserved.
  
 This is part of the Gaussian(R) 09 program.  It is based on
 the Gaussian(R) 03 system (copyright 2003, Gaussian, Inc.),
 the Gaussian(R) 98 system (copyright 1998, Gaussian, Inc.),
 the Gaussian(R) 94 system (copyright 1995, Gaussian, Inc.),
 the Gaussian 92(TM) system (copyright 1992, Gaussian, Inc.),
 the Gaussian 90(TM) system (copyright 1990, Gaussian, Inc.),
 the Gaussian 88(TM) system (copyright 1988, Gaussian, Inc.),
 the Gaussian 86(TM) system (copyright 1986, Carnegie Mellon
 University), and the Gaussian 82(TM) system (copyright 1983,
 Carnegie Mellon University). Gaussian is a federally registered
 trademark of Gaussian, Inc.
  
 This software contains proprietary and confidential information,
 including trade secrets, belonging to Gaussian, Inc.
  
 This software is provided under written license and may be
 used, copied, transmitted, or stored only in accord with that
 written license.
  
 The following legend is applicable only to US Government
 contracts under FAR:
  
                    RESTRICTED RIGHTS LEGEND
  
 Use, reproduction and disclosure by the US Government is
 subject to restrictions as set forth in subparagraphs (a)
 and (c) of the Commercial Computer Software - Restricted
 Rights clause in FAR 52.227-19.
  
 Gaussian, Inc.
 340 Quinnipiac St., Bldg. 40, Wallingford CT 06492
  
  
 ---------------------------------------------------------------
 Warning -- This program may not be used in any manner that
 competes with the business of Gaussian, Inc. or will provide
 assistance to any competitor of Gaussian, Inc.  The licensee
 of this program is prohibited from giving any competitor of
 Gaussian, Inc. access to this program.  By using this program,
 the user acknowledges that Gaussian, Inc. is engaged in the
 business of creating and licensing software in the field of
 computational chemistry and represents and warrants to the
 licensee that it is not a competitor of Gaussian, Inc. and that
 it will not use this program in any manner prohibited above.
 ---------------------------------------------------------------
  

 Cite this work as:
 Gaussian 09, Revision E.01,
 M. J. Frisch, G. W. Trucks, H. B. Schlegel, G. E. Scuseria, 
 M. A. Robb, J. R. Cheeseman, G. Scalmani, V. Barone, B. Mennucci, 
 G. A. Petersson, H. Nakatsuji, M. Caricato, X. Li, H. P. Hratchian, 
 A. F. Izmaylov, J. Bloino, G. Zheng, J. L. Sonnenberg, M. Hada, 
 M. Ehara, K. Toyota, R. Fukuda, J. Hasegawa, M. Ishida, T. Nakajima, 
 Y. Honda, O. Kitao, H. Nakai, T. Vreven, J. A. Montgomery, Jr., 
 J. E. Peralta, F. Ogliaro, M. Bearpark, J. J. Heyd, E. Brothers, 
 K. N. Kudin, V. N. Staroverov, T. Keith, R. Kobayashi, J. Normand, 
 K. Raghavachari, A. Rendell, J. C. Burant, S. S. Iyengar, J. Tomasi, 
 M. Cossi, N. Rega, J. M. Millam, M. Klene, J. E. Knox, J. B. Cross, 
 V. Bakken, C. Adamo, J. Jaramillo, R. Gomperts, R. E. Stratmann, 
 O. Yazyev, A. J. Austin, R. Cammi, C. Pomelli, J. W. Ochterski, 
 R. L. Martin, K. Morokuma, V. G. Zakrzewski, G. A. Voth, 
 P. Salvador, J. J. Dannenberg, S. Dapprich, A. D. Daniels, 
 O. Farkas, J. B. Foresman, J. V. Ortiz, J. Cioslowski, 
 and D. J. Fox, Gaussian, Inc., Wallingford CT, 2013.
 
 ******************************************
 Gaussian 09:  EM64L-G09RevE.01 30-Nov-2015
                26-Aug-2021 
 ******************************************
 %nprocshared=64
 Will use up to   64 processors via shared memory.
 %mem=128GB
 %chk=HY_H2O_SVWN_PC2_OPT_FREQ.chk
 --------------------
 #p opt freq SVWN/gen
 --------------------
 1/14=-1,18=20,19=15,26=3,38=1/1,3;
 2/9=110,12=2,17=6,18=5,40=1/2;
 3/5=7,11=2,16=1,25=1,30=1,71=1,74=205/1,2,3;
 4//1;
 5/5=2,38=5/2;
 6/7=2,8=2,9=2,10=2,28=1/1;
 7//1,2,3,16;
 1/14=-1,18=20,19=15,26=3/3(2);
 2/9=110/2;
 99//99;
 2/9=110/2;
 3/5=7,6=1,11=2,16=1,25=1,30=1,71=1,74=205,82=7/1,2,3;
 4/5=5,16=3,69=1/1;
 5/5=2,38=5/2;
 7//1,2,3,16;
 1/14=-1,18=20,19=15,26=3/3(-5);
 2/9=110/2;
 6/7=2,8=2,9=2,10=2,19=2,28=1/1;
 99/9=1/99;
 Leave Link    1 at Thu Aug 26 23:57:00 2021, MaxMem= 17179869184 cpu:         7.2
 (Enter /public3/home/sc51754/softwares/g09e01/l101.exe)
 ------------------------
 HY_H2O_SVWN_PC2_OPT_FREQ
 ------------------------
 Symbolic Z-matrix:
 Charge =  0 Multiplicity = 1
 O                     1.216     1.44855  -0.00262 
 N                     0.30594  -0.66619  -0.00547 
 C                     0.13701   0.65516  -0.00009 
 C                    -1.12976   1.25518   0.00826 
 C                    -0.78318  -1.4465   -0.00563 
 C                    -2.23812   0.43549   0.00911 
 C                    -2.07199  -0.951     0.00173 
 H                     2.03022   0.90023  -0.0153 
 H                    -1.20631   2.3321    0.01208 
 H                    -0.59906  -2.51382  -0.01294 
 H                    -3.22982   0.86768   0.01456 
 H                    -2.91795  -1.62195   0.00074 
 O                     3.09571  -0.58722  -0.08503 
 H                     3.59397  -0.87925   0.68253 
 H                     2.20982  -1.00228  -0.02248 
 
 Add virtual bond connecting atoms O13        and H8         Dist= 3.46D+00.
 Add virtual bond connecting atoms H15        and N2         Dist= 3.65D+00.
 Add virtual bond connecting atoms H15        and H8         Dist= 3.61D+00.
 Add atom     13 valence  3 ND=      2 dihedral       8     13     14     15
 NAtoms=     15 NQM=       15 NQMF=       0 NMMI=      0 NMMIF=      0
                NMic=       0 NMicF=      0.
                    Isotopes and Nuclear Properties:
 (Nuclear quadrupole moments (NQMom) in fm**2, nuclear magnetic moments (NMagM)
  in nuclear magnetons)

  Atom         1           2           3           4           5           6           7           8           9          10
 IAtWgt=          16          14          12          12          12          12          12           1           1           1
 AtmWgt=  15.9949146  14.0030740  12.0000000  12.0000000  12.0000000  12.0000000  12.0000000   1.0078250   1.0078250   1.0078250
 NucSpn=           0           2           0           0           0           0           0           1           1           1
 AtZEff=   0.0000000   0.0000000   0.0000000   0.0000000   0.0000000   0.0000000   0.0000000   0.0000000   0.0000000   0.0000000
 NQMom=    0.0000000   2.0440000   0.0000000   0.0000000   0.0000000   0.0000000   0.0000000   0.0000000   0.0000000   0.0000000
 NMagM=    0.0000000   0.4037610   0.0000000   0.0000000   0.0000000   0.0000000   0.0000000   2.7928460   2.7928460   2.7928460
 AtZNuc=   8.0000000   7.0000000   6.0000000   6.0000000   6.0000000   6.0000000   6.0000000   1.0000000   1.0000000   1.0000000

  Atom        11          12          13          14          15
 IAtWgt=           1           1          16           1           1
 AtmWgt=   1.0078250   1.0078250  15.9949146   1.0078250   1.0078250
 NucSpn=           1           1           0           1           1
 AtZEff=   0.0000000   0.0000000   0.0000000   0.0000000   0.0000000
 NQMom=    0.0000000   0.0000000   0.0000000   0.0000000   0.0000000
 NMagM=    2.7928460   2.7928460   0.0000000   2.7928460   2.7928460
 AtZNuc=   1.0000000   1.0000000   8.0000000   1.0000000   1.0000000
 Leave Link  101 at Thu Aug 26 23:57:01 2021, MaxMem= 17179869184 cpu:        14.6
 (Enter /public3/home/sc51754/softwares/g09e01/l103.exe)

 GradGradGradGradGradGradGradGradGradGradGradGradGradGradGradGradGradGrad
 Berny optimization.
 Initialization pass.
                           ----------------------------
                           !    Initial Parameters    !
                           ! (Angstroms and Degrees)  !
 --------------------------                            --------------------------
 ! Name  Definition              Value          Derivative Info.                !
 --------------------------------------------------------------------------------
 ! R1    R(1,3)                  1.3393         estimate D2E/DX2                !
 ! R2    R(1,8)                  0.9817         estimate D2E/DX2                !
 ! R3    R(2,3)                  1.3321         estimate D2E/DX2                !
 ! R4    R(2,5)                  1.3398         estimate D2E/DX2                !
 ! R5    R(2,15)                 1.9334         estimate D2E/DX2                !
 ! R6    R(3,4)                  1.4017         estimate D2E/DX2                !
 ! R7    R(4,6)                  1.3785         estimate D2E/DX2                !
 ! R8    R(4,9)                  1.0796         estimate D2E/DX2                !
 ! R9    R(5,7)                  1.3808         estimate D2E/DX2                !
 ! R10   R(5,10)                 1.0831         estimate D2E/DX2                !
 ! R11   R(6,7)                  1.3964         estimate D2E/DX2                !
 ! R12   R(6,11)                 1.0818         estimate D2E/DX2                !
 ! R13   R(7,12)                 1.0797         estimate D2E/DX2                !
 ! R14   R(8,13)                 1.831          estimate D2E/DX2                !
 ! R15   R(8,15)                 1.911          estimate D2E/DX2                !
 ! R16   R(13,14)                0.9606         estimate D2E/DX2                !
 ! R17   R(13,15)                0.9803         estimate D2E/DX2                !
 ! A1    A(3,1,8)              109.7141         estimate D2E/DX2                !
 ! A2    A(3,2,5)              118.3342         estimate D2E/DX2                !
 ! A3    A(3,2,15)             107.2978         estimate D2E/DX2                !
 ! A4    A(5,2,15)             134.3668         estimate D2E/DX2                !
 ! A5    A(1,3,2)              119.0414         estimate D2E/DX2                !
 ! A6    A(1,3,4)              118.3271         estimate D2E/DX2                !
 ! A7    A(2,3,4)              122.6315         estimate D2E/DX2                !
 ! A8    A(3,4,6)              118.1694         estimate D2E/DX2                !
 ! A9    A(3,4,9)              119.4119         estimate D2E/DX2                !
 ! A10   A(6,4,9)              122.4186         estimate D2E/DX2                !
 ! A11   A(2,5,7)              123.3496         estimate D2E/DX2                !
 ! A12   A(2,5,10)             115.832          estimate D2E/DX2                !
 ! A13   A(7,5,10)             120.8184         estimate D2E/DX2                !
 ! A14   A(4,6,7)              119.6513         estimate D2E/DX2                !
 ! A15   A(4,6,11)             119.9667         estimate D2E/DX2                !
 ! A16   A(7,6,11)             120.382          estimate D2E/DX2                !
 ! A17   A(5,7,6)              117.8639         estimate D2E/DX2                !
 ! A18   A(5,7,12)             120.5506         estimate D2E/DX2                !
 ! A19   A(6,7,12)             121.5855         estimate D2E/DX2                !
 ! A20   A(1,8,13)             159.5294         estimate D2E/DX2                !
 ! A21   A(1,8,15)             129.3503         estimate D2E/DX2                !
 ! A22   A(8,13,14)            121.2243         estimate D2E/DX2                !
 ! A23   A(14,13,15)           106.8012         estimate D2E/DX2                !
 ! A24   A(2,15,8)              74.5948         estimate D2E/DX2                !
 ! A25   A(2,15,13)            144.7717         estimate D2E/DX2                !
 ! D1    D(8,1,3,2)              0.4232         estimate D2E/DX2                !
 ! D2    D(8,1,3,4)           -179.5823         estimate D2E/DX2                !
 ! D3    D(3,1,8,13)             4.1107         estimate D2E/DX2                !
 ! D4    D(3,1,8,15)            -0.4785         estimate D2E/DX2                !
 ! D5    D(5,2,3,1)           -179.8646         estimate D2E/DX2                !
 ! D6    D(5,2,3,4)              0.1411         estimate D2E/DX2                !
 ! D7    D(15,2,3,1)            -0.2046         estimate D2E/DX2                !
 ! D8    D(15,2,3,4)           179.8011         estimate D2E/DX2                !
 ! D9    D(3,2,5,7)             -0.1121         estimate D2E/DX2                !
 ! D10   D(3,2,5,10)           179.8324         estimate D2E/DX2                !
 ! D11   D(15,2,5,7)          -179.6581         estimate D2E/DX2                !
 ! D12   D(15,2,5,10)            0.2865         estimate D2E/DX2                !
 ! D13   D(3,2,15,8)            -0.0003         estimate D2E/DX2                !
 ! D14   D(3,2,15,13)           -5.7168         estimate D2E/DX2                !
 ! D15   D(5,2,15,8)           179.5811         estimate D2E/DX2                !
 ! D16   D(5,2,15,13)          173.8646         estimate D2E/DX2                !
 ! D17   D(1,3,4,6)            179.9187         estimate D2E/DX2                !
 ! D18   D(1,3,4,9)              0.0211         estimate D2E/DX2                !
 ! D19   D(2,3,4,6)             -0.0869         estimate D2E/DX2                !
 ! D20   D(2,3,4,9)           -179.9845         estimate D2E/DX2                !
 ! D21   D(3,4,6,7)             -0.0001         estimate D2E/DX2                !
 ! D22   D(3,4,6,11)          -179.9445         estimate D2E/DX2                !
 ! D23   D(9,4,6,7)            179.8942         estimate D2E/DX2                !
 ! D24   D(9,4,6,11)            -0.0502         estimate D2E/DX2                !
 ! D25   D(2,5,7,6)              0.0291         estimate D2E/DX2                !
 ! D26   D(2,5,7,12)           179.968          estimate D2E/DX2                !
 ! D27   D(10,5,7,6)          -179.9128         estimate D2E/DX2                !
 ! D28   D(10,5,7,12)            0.0261         estimate D2E/DX2                !
 ! D29   D(4,6,7,5)              0.0272         estimate D2E/DX2                !
 ! D30   D(4,6,7,12)          -179.911          estimate D2E/DX2                !
 ! D31   D(11,6,7,5)           179.9714         estimate D2E/DX2                !
 ! D32   D(11,6,7,12)            0.0332         estimate D2E/DX2                !
 ! D33   D(1,8,13,14)         -110.3582         estimate D2E/DX2                !
 ! D34   D(1,8,15,2)             0.3164         estimate D2E/DX2                !
 ! D35   D(8,13,14,15)          87.5843         estimate D2E/DX2                !
 ! D36   D(14,13,15,2)         125.4771         estimate D2E/DX2                !
 --------------------------------------------------------------------------------
 Trust Radius=3.00D-01 FncErr=1.00D-07 GrdErr=1.00D-06
 Number of steps in this run=     88 maximum allowed number of steps=    100.
 GradGradGradGradGradGradGradGradGradGradGradGradGradGradGradGradGradGrad

 Leave Link  103 at Thu Aug 26 23:57:01 2021, MaxMem= 17179869184 cpu:         6.4
 (Enter /public3/home/sc51754/softwares/g09e01/l202.exe)
                          Input orientation:                          
 ---------------------------------------------------------------------
 Center     Atomic      Atomic             Coordinates (Angstroms)
 Number     Number       Type             X           Y           Z
 ---------------------------------------------------------------------
      1          8           0        1.216003    1.448553   -0.002617
      2          7           0        0.305942   -0.666194   -0.005465
      3          6           0        0.137014    0.655155   -0.000094
      4          6           0       -1.129757    1.255183    0.008257
      5          6           0       -0.783175   -1.446498   -0.005634
      6          6           0       -2.238124    0.435485    0.009108
      7          6           0       -2.071986   -0.950998    0.001732
      8          1           0        2.030216    0.900227   -0.015295
      9          1           0       -1.206308    2.332099    0.012077
     10          1           0       -0.599059   -2.513820   -0.012944
     11          1           0       -3.229823    0.867678    0.014558
     12          1           0       -2.917952   -1.621952    0.000735
     13          8           0        3.095711   -0.587217   -0.085025
     14          1           0        3.593966   -0.879251    0.682533
     15          1           0        2.209819   -1.002278   -0.022484
 ---------------------------------------------------------------------
                    Distance matrix (angstroms):
                    1          2          3          4          5
     1  O    0.000000
     2  N    2.302254   0.000000
     3  C    1.339292   1.332114   0.000000
     4  C    2.353742   2.398564   1.401718   0.000000
     5  C    3.518244   1.339795   2.294281   2.723856   0.000000
     6  C    3.599644   2.772396   2.385292   1.378544   2.378856
     7  C    4.070471   2.394934   2.731192   2.398973   1.380800
     8  H    0.981715   2.329569   1.909059   3.179934   3.663657
     9  H    2.578461   3.358120   2.148675   1.079640   3.802256
    10  H    4.358320   2.057378   3.253363   3.806241   1.083111
    11  H    4.483646   3.854192   3.373570   2.135527   3.367774
    12  H    5.149524   3.362589   3.810254   3.387566   2.141984
    13  O    2.772085   2.792020   3.210076   4.610609   3.973717
    14  H    3.397471   3.365982   3.843293   5.227238   4.467069
    15  H    2.644738   1.933388   2.654073   4.031109   3.025827
                    6          7          8          9         10
     6  C    0.000000
     7  C    1.396421   0.000000
     8  H    4.293636   4.500598   0.000000
     9  H    2.159120   3.395325   3.539222   0.000000
    10  H    3.374229   2.147590   4.309154   4.883883   0.000000
    11  H    1.081798   2.155999   5.260224   2.497829   4.284414
    12  H    2.166860   1.079740   5.553918   4.308639   2.484528
    13  O    5.431812   5.181212   1.831019   5.199923   4.167532
    14  H    6.016253   5.707158   2.469579   5.814199   4.553786
    15  H    4.674651   4.282181   1.910977   4.773802   3.189772
                   11         12         13         14         15
    11  H    0.000000
    12  H    2.509126   0.000000
    13  O    6.491457   6.102637   0.000000
    14  H    7.075454   6.589501   0.960566   0.000000
    15  H    5.752201   5.165130   0.980302   1.558219   0.000000
 Stoichiometry    C5H7NO2
 Framework group  C1[X(C5H7NO2)]
 Deg. of freedom    39
 Full point group                 C1      NOp   1
 Largest Abelian subgroup         C1      NOp   1
 Largest concise Abelian subgroup C1      NOp   1
                         Standard orientation:                         
 ---------------------------------------------------------------------
 Center     Atomic      Atomic             Coordinates (Angstroms)
 Number     Number       Type             X           Y           Z
 ---------------------------------------------------------------------
      1          8           0        1.216003    1.448553   -0.002617
      2          7           0        0.305942   -0.666194   -0.005465
      3          6           0        0.137014    0.655155   -0.000094
      4          6           0       -1.129757    1.255183    0.008257
      5          6           0       -0.783175   -1.446498   -0.005634
      6          6           0       -2.238124    0.435485    0.009108
      7          6           0       -2.071986   -0.950998    0.001732
      8          1           0        2.030216    0.900227   -0.015295
      9          1           0       -1.206308    2.332099    0.012077
     10          1           0       -0.599059   -2.513820   -0.012944
     11          1           0       -3.229823    0.867678    0.014558
     12          1           0       -2.917952   -1.621952    0.000735
     13          8           0        3.095711   -0.587217   -0.085025
     14          1           0        3.593966   -0.879251    0.682533
     15          1           0        2.209819   -1.002278   -0.022484
 ---------------------------------------------------------------------
 Rotational constants (GHZ):      4.0123302      1.4179596      1.0501753
 Leave Link  202 at Thu Aug 26 23:57:02 2021, MaxMem= 17179869184 cpu:         4.2
 (Enter /public3/home/sc51754/softwares/g09e01/l301.exe)
 General basis read from cards:  (5D, 7F)
 Centers:       8      9     10     11     12     14     15
 S 4 1.00
     Exponent=  7.5423000000D+01 Coefficients=  2.4065000000D-03
     Exponent=  1.1350000000D+01 Coefficients=  1.8487000000D-02
     Exponent=  2.5993000000D+00 Coefficients=  8.9742000000D-02
     Exponent=  7.3513000000D-01 Coefficients=  2.8111000000D-01
 S 1 1.00
     Exponent=  2.3167000000D-01 Coefficients=  1.0000000000D+00
 S 1 1.00
     Exponent=  7.4147000000D-02 Coefficients=  1.0000000000D+00
 P 1 1.00
     Exponent=  1.6000000000D+00 Coefficients=  1.0000000000D+00
 P 1 1.00
     Exponent=  4.5000000000D-01 Coefficients=  1.0000000000D+00
 D 1 1.00
     Exponent=  1.2500000000D+00 Coefficients=  1.0000000000D+00
 ****
 Centers:       3      4      5      6      7
 S 7 1.00
     Exponent=  7.8571000000D+03 Coefficients=  5.6825000000D-04
     Exponent=  1.1787000000D+03 Coefficients=  4.3915000000D-03
     Exponent=  2.6832000000D+02 Coefficients=  2.2504000000D-02
     Exponent=  7.5948000000D+01 Coefficients=  8.6653000000D-02
     Exponent=  2.4559000000D+01 Coefficients=  2.4405000000D-01
     Exponent=  8.6212000000D+00 Coefficients=  4.4148000000D-01
     Exponent=  3.1278000000D+00 Coefficients=  3.5332000000D-01
 S 7 1.00
     Exponent=  1.1787000000D+03 Coefficients= -5.9492000000D-07
     Exponent=  2.6832000000D+02 Coefficients= -6.2748000000D-05
     Exponent=  7.5948000000D+01 Coefficients= -7.5773000000D-04
     Exponent=  2.4559000000D+01 Coefficients= -7.3308000000D-03
     Exponent=  8.6212000000D+00 Coefficients= -3.8932000000D-02
     Exponent=  3.1278000000D+00 Coefficients= -8.8908000000D-02
     Exponent=  8.2202000000D-01 Coefficients=  2.1689000000D-01
 S 1 1.00
     Exponent=  3.3017000000D-01 Coefficients=  1.0000000000D+00
 S 1 1.00
     Exponent=  1.1463000000D-01 Coefficients=  1.0000000000D+00
 P 4 1.00
     Exponent=  3.3775000000D+01 Coefficients=  6.0294000000D-03
     Exponent=  7.6766000000D+00 Coefficients=  4.3228000000D-02
     Exponent=  2.2357000000D+00 Coefficients=  1.6301000000D-01
     Exponent=  7.6447000000D-01 Coefficients=  3.6504000000D-01
 P 1 1.00
     Exponent=  2.6232000000D-01 Coefficients=  1.0000000000D+00
 P 1 1.00
     Exponent=  8.4638000000D-02 Coefficients=  1.0000000000D+00
 D 1 1.00
     Exponent=  1.4000000000D+00 Coefficients=  1.0000000000D+00
 D 1 1.00
     Exponent=  4.5000000000D-01 Coefficients=  1.0000000000D+00
 F 1 1.00
     Exponent=  9.5000000000D-01 Coefficients=  1.0000000000D+00
 ****
 Centers:       2
 S 7 1.00
     Exponent=  1.1101000000D+04 Coefficients=  5.4570000000D-04
     Exponent=  1.6653000000D+03 Coefficients=  4.2181000000D-03
     Exponent=  3.7908000000D+02 Coefficients=  2.1645000000D-02
     Exponent=  1.0730000000D+02 Coefficients=  8.3776000000D-02
     Exponent=  3.4747000000D+01 Coefficients=  2.3881000000D-01
     Exponent=  1.2249000000D+01 Coefficients=  4.3994000000D-01
     Exponent=  4.4743000000D+00 Coefficients=  3.6364000000D-01
 S 7 1.00
     Exponent=  1.6653000000D+03 Coefficients= -1.5006000000D-06
     Exponent=  3.7908000000D+02 Coefficients= -5.8753000000D-05
     Exponent=  1.0730000000D+02 Coefficients= -7.7453000000D-04
     Exponent=  3.4747000000D+01 Coefficients= -7.2161000000D-03
     Exponent=  1.2249000000D+01 Coefficients= -3.9338000000D-02
     Exponent=  4.4743000000D+00 Coefficients= -9.0611000000D-02
     Exponent=  1.2404000000D+00 Coefficients=  1.9882000000D-01
 S 1 1.00
     Exponent=  4.8743000000D-01 Coefficients=  1.0000000000D+00
 S 1 1.00
     Exponent=  1.6484000000D-01 Coefficients=  1.0000000000D+00
 P 4 1.00
     Exponent=  4.7934000000D+01 Coefficients=  6.1706000000D-03
     Exponent=  1.0999000000D+01 Coefficients=  4.4260000000D-02
     Exponent=  3.2472000000D+00 Coefficients=  1.6825000000D-01
     Exponent=  1.1114000000D+00 Coefficients=  3.6848000000D-01
 P 1 1.00
     Exponent=  3.7988000000D-01 Coefficients=  1.0000000000D+00
 P 1 1.00
     Exponent=  1.2068000000D-01 Coefficients=  1.0000000000D+00
 D 1 1.00
     Exponent=  1.8000000000D+00 Coefficients=  1.0000000000D+00
 D 1 1.00
     Exponent=  5.5000000000D-01 Coefficients=  1.0000000000D+00
 F 1 1.00
     Exponent=  1.0200000000D+00 Coefficients=  1.0000000000D+00
 ****
 Centers:       1     13
 S 7 1.00
     Exponent=  1.4782000000D+04 Coefficients=  5.3519000000D-04
     Exponent=  2.2173000000D+03 Coefficients=  4.1375000000D-03
     Exponent=  5.0474000000D+02 Coefficients=  2.1245000000D-02
     Exponent=  1.4287000000D+02 Coefficients=  8.2453000000D-02
     Exponent=  4.6300000000D+01 Coefficients=  2.3671000000D-01
     Exponent=  1.6337000000D+01 Coefficients=  4.4039000000D-01
     Exponent=  5.9828000000D+00 Coefficients=  3.6465000000D-01
 S 7 1.00
     Exponent=  2.2173000000D+03 Coefficients= -1.9275000000D-06
     Exponent=  5.0474000000D+02 Coefficients= -5.7964000000D-05
     Exponent=  1.4287000000D+02 Coefficients= -7.9494000000D-04
     Exponent=  4.6300000000D+01 Coefficients= -7.3125000000D-03
     Exponent=  1.6337000000D+01 Coefficients= -4.0574000000D-02
     Exponent=  5.9828000000D+00 Coefficients= -9.1594000000D-02
     Exponent=  1.6718000000D+00 Coefficients=  2.0940000000D-01
 S 1 1.00
     Exponent=  6.4662000000D-01 Coefficients=  1.0000000000D+00
 S 1 1.00
     Exponent=  2.1669000000D-01 Coefficients=  1.0000000000D+00
 P 4 1.00
     Exponent=  6.0424000000D+01 Coefficients=  6.8949000000D-03
     Exponent=  1.3935000000D+01 Coefficients=  4.9005000000D-02
     Exponent=  4.1531000000D+00 Coefficients=  1.8255000000D-01
     Exponent=  1.4158000000D+00 Coefficients=  3.7633000000D-01
 P 1 1.00
     Exponent=  4.7549000000D-01 Coefficients=  1.0000000000D+00
 P 1 1.00
     Exponent=  1.4529000000D-01 Coefficients=  1.0000000000D+00
 D 1 1.00
     Exponent=  2.2000000000D+00 Coefficients=  1.0000000000D+00
 D 1 1.00
     Exponent=  6.5000000000D-01 Coefficients=  1.0000000000D+00
 F 1 1.00
     Exponent=  1.1000000000D+00 Coefficients=  1.0000000000D+00
 ****
 Ernie: Thresh=  0.10000D-02 Tol=  0.10000D-05 Strict=F.
 Ernie:  8 primitive shells out of 263 were deleted.
 There are   385 symmetry adapted cartesian basis functions of A   symmetry.
 There are   338 symmetry adapted basis functions of A   symmetry.
   338 basis functions,   566 primitive gaussians,   385 cartesian basis functions
    30 alpha electrons       30 beta electrons
       nuclear repulsion energy       357.6226221683 Hartrees.
 IExCor=  205 DFT=T Ex=S Corr=VWN ExCW=0 ScaHFX=  0.000000
 ScaDFX=  1.000000  1.000000  1.000000  1.000000 ScalE2=  1.000000  1.000000
 IRadAn=      0 IRanWt=     -1 IRanGd=            0 ICorTp=0 IEmpDi=  4
 NAtoms=   15 NActive=   15 NUniq=   15 SFac= 1.00D+00 NAtFMM=   60 NAOKFM=F Big=F
 Integral buffers will be    131072 words long.
 Raffenetti 2 integral format.
 Two-electron integral symmetry is turned on.
 Leave Link  301 at Thu Aug 26 23:57:03 2021, MaxMem= 17179869184 cpu:        13.5
 (Enter /public3/home/sc51754/softwares/g09e01/l302.exe)
 NPDir=0 NMtPBC=     1 NCelOv=     1 NCel=       1 NClECP=     1 NCelD=      1
         NCelK=      1 NCelE2=     1 NClLst=     1 CellRange=     0.0.
 One-electron integrals computed using PRISM.
 NBasis=   338 RedAO= T EigKep=  1.46D-04  NBF=   338
 NBsUse=   338 1.00D-06 EigRej= -1.00D+00 NBFU=   338
 Precomputing XC quadrature grid using
 IXCGrd= 4 IRadAn=           0 IRanWt=          -1 IRanGd=           0 AccXCQ= 0.00D+00.
 Generated NRdTot=       0 NPtTot=           0 NUsed=           0 NTot=          32
 NSgBfM=   384   384   384   384   385 MxSgAt=    15 MxSgA2=    15.
 Leave Link  302 at Thu Aug 26 23:57:05 2021, MaxMem= 17179869184 cpu:       119.5
 (Enter /public3/home/sc51754/softwares/g09e01/l303.exe)
 DipDrv:  MaxL=1.
 Leave Link  303 at Thu Aug 26 23:57:07 2021, MaxMem= 17179869184 cpu:        17.6
 (Enter /public3/home/sc51754/softwares/g09e01/l401.exe)
 ExpMin= 7.41D-02 ExpMax= 1.48D+04 ExpMxC= 5.05D+02 IAcc=2 IRadAn=         4 AccDes= 0.00D+00
 Harris functional with IExCor=  205 and IRadAn=       4 diagonalized for initial guess.
 HarFok:  IExCor=  205 AccDes= 0.00D+00 IRadAn=         4 IDoV= 1 UseB2=F ITyADJ=14
 ICtDFT=  3500011 ScaDFX=  1.000000  1.000000  1.000000  1.000000
 FoFCou: FMM=F IPFlag=           0 FMFlag=      100000 FMFlg1=           0
         NFxFlg=           0 DoJE=T BraDBF=F KetDBF=T FulRan=T
         wScrn=  0.000000 ICntrl=     500 IOpCl=  0 I1Cent=   200000004 NGrid=           0
         NMat0=    1 NMatS0=      1 NMatT0=    0 NMatD0=    1 NMtDS0=    0 NMtDT0=    0
 Petite list used in FoFCou.
 Harris En= -398.221864238630    
 JPrj=0 DoOrth=F DoCkMO=F.
 Leave Link  401 at Thu Aug 26 23:57:08 2021, MaxMem= 17179869184 cpu:        59.8
 (Enter /public3/home/sc51754/softwares/g09e01/l502.exe)
 Closed shell SCF:
 Using DIIS extrapolation, IDIIS=  1040.
 Integral symmetry usage will be decided dynamically.
 Keep J ints in memory in canonical form, NReq=1670404686.
 IVT=      490665 IEndB=      490665 NGot= 17179869184 MDV= 15538220534
 LenX= 15538220534 LenY= 15538071868
 Requested convergence on RMS density matrix=1.00D-08 within 128 cycles.
 Requested convergence on MAX density matrix=1.00D-06.
 Requested convergence on             energy=1.00D-06.
 No special actions if energy rises.
 FoFCou: FMM=F IPFlag=           0 FMFlag=           0 FMFlg1=           0
         NFxFlg=           0 DoJE=F BraDBF=F KetDBF=F FulRan=T
         wScrn=  0.000000 ICntrl=     600 IOpCl=  0 I1Cent=           0 NGrid=           0
         NMat0=    1 NMatS0=  57291 NMatT0=    0 NMatD0=    1 NMtDS0=    0 NMtDT0=    0
 Symmetry not used in FoFCou.
 Integral accuracy reduced to 1.0D-05 until final iterations.

 Cycle   1  Pass 0  IDiag  1:
 E= -397.803760819116    
 DIIS: error= 2.30D-02 at cycle   1 NSaved=   1.
 NSaved= 1 IEnMin= 1 EnMin= -397.803760819116     IErMin= 1 ErrMin= 2.30D-02
 ErrMax= 2.30D-02  0.00D+00 EMaxC= 1.00D-01 BMatC= 2.63D-01 BMatP= 2.63D-01
 IDIUse=3 WtCom= 7.70D-01 WtEn= 2.30D-01
 Coeff-Com:  0.100D+01
 Coeff-En:   0.100D+01
 Coeff:      0.100D+01
 Gap=     0.141 Goal=   None    Shift=    0.000
 GapD=    0.141 DampG=1.000 DampE=0.500 DampFc=0.5000 IDamp=-1.
 Damping current iteration by 5.00D-01
 RMSDP=2.94D-03 MaxDP=1.19D-01              OVMax= 2.42D-01

 Cycle   2  Pass 0  IDiag  1:
 E= -397.840061665597     Delta-E=       -0.036300846481 Rises=F Damp=T
 DIIS: error= 9.45D-03 at cycle   2 NSaved=   2.
 NSaved= 2 IEnMin= 2 EnMin= -397.840061665597     IErMin= 2 ErrMin= 9.45D-03
 ErrMax= 9.45D-03  0.00D+00 EMaxC= 1.00D-01 BMatC= 4.88D-02 BMatP= 2.63D-01
 IDIUse=3 WtCom= 9.06D-01 WtEn= 9.45D-02
 Coeff-Com:  0.277D+00 0.723D+00
 Coeff-En:   0.429D+00 0.571D+00
 Coeff:      0.292D+00 0.708D+00
 Gap=     0.191 Goal=   None    Shift=    0.000
 RMSDP=8.59D-04 MaxDP=2.93D-02 DE=-3.63D-02 OVMax= 2.03D-01

 Cycle   3  Pass 0  IDiag  1:
 E= -398.009342722076     Delta-E=       -0.169281056479 Rises=F Damp=F
 DIIS: error= 9.02D-03 at cycle   3 NSaved=   3.
 NSaved= 3 IEnMin= 3 EnMin= -398.009342722076     IErMin= 3 ErrMin= 9.02D-03
 ErrMax= 9.02D-03  0.00D+00 EMaxC= 1.00D-01 BMatC= 2.12D-02 BMatP= 4.88D-02
 IDIUse=3 WtCom= 9.10D-01 WtEn= 9.02D-02
 Coeff-Com:  0.139D+00 0.438D+00 0.423D+00
 Coeff-En:   0.000D+00 0.000D+00 0.100D+01
 Coeff:      0.126D+00 0.398D+00 0.475D+00
 Gap=     0.149 Goal=   None    Shift=    0.000
 RMSDP=4.97D-04 MaxDP=2.29D-02 DE=-1.69D-01 OVMax= 7.52D-02

 Cycle   4  Pass 0  IDiag  1:
 E= -398.022519786764     Delta-E=       -0.013177064688 Rises=F Damp=F
 DIIS: error= 6.37D-03 at cycle   4 NSaved=   4.
 NSaved= 4 IEnMin= 4 EnMin= -398.022519786764     IErMin= 4 ErrMin= 6.37D-03
 ErrMax= 6.37D-03  0.00D+00 EMaxC= 1.00D-01 BMatC= 7.19D-03 BMatP= 2.12D-02
 IDIUse=3 WtCom= 9.36D-01 WtEn= 6.37D-02
 Coeff-Com:  0.486D-01 0.174D+00 0.351D+00 0.426D+00
 Coeff-En:   0.000D+00 0.000D+00 0.305D+00 0.695D+00
 Coeff:      0.455D-01 0.163D+00 0.348D+00 0.444D+00
 Gap=     0.147 Goal=   None    Shift=    0.000
 RMSDP=2.16D-04 MaxDP=1.32D-02 DE=-1.32D-02 OVMax= 4.50D-02

 Cycle   5  Pass 0  IDiag  1:
 E= -398.028763543675     Delta-E=       -0.006243756910 Rises=F Damp=F
 DIIS: error= 1.62D-03 at cycle   5 NSaved=   5.
 NSaved= 5 IEnMin= 5 EnMin= -398.028763543675     IErMin= 5 ErrMin= 1.62D-03
 ErrMax= 1.62D-03  0.00D+00 EMaxC= 1.00D-01 BMatC= 8.45D-04 BMatP= 7.19D-03
 IDIUse=3 WtCom= 9.84D-01 WtEn= 1.62D-02
 Coeff-Com:  0.153D-01 0.634D-01 0.193D+00 0.318D+00 0.411D+00
 Coeff-En:   0.000D+00 0.000D+00 0.000D+00 0.107D+00 0.893D+00
 Coeff:      0.150D-01 0.624D-01 0.189D+00 0.314D+00 0.419D+00
 Gap=     0.147 Goal=   None    Shift=    0.000
 RMSDP=6.94D-05 MaxDP=3.71D-03 DE=-6.24D-03 OVMax= 1.10D-02

 Cycle   6  Pass 0  IDiag  1:
 E= -398.029539786308     Delta-E=       -0.000776242633 Rises=F Damp=F
 DIIS: error= 3.13D-04 at cycle   6 NSaved=   6.
 NSaved= 6 IEnMin= 6 EnMin= -398.029539786308     IErMin= 6 ErrMin= 3.13D-04
 ErrMax= 3.13D-04  0.00D+00 EMaxC= 1.00D-01 BMatC= 4.36D-05 BMatP= 8.45D-04
 IDIUse=3 WtCom= 9.97D-01 WtEn= 3.13D-03
 Coeff-Com:  0.144D-02 0.101D-01 0.557D-01 0.111D+00 0.239D+00 0.583D+00
 Coeff-En:   0.000D+00 0.000D+00 0.000D+00 0.000D+00 0.931D-02 0.991D+00
 Coeff:      0.143D-02 0.101D-01 0.555D-01 0.110D+00 0.238D+00 0.584D+00
 Gap=     0.147 Goal=   None    Shift=    0.000
 RMSDP=1.71D-05 MaxDP=6.59D-04 DE=-7.76D-04 OVMax= 3.17D-03

 Cycle   7  Pass 0  IDiag  1:
 E= -398.029568629857     Delta-E=       -0.000028843549 Rises=F Damp=F
 DIIS: error= 1.96D-04 at cycle   7 NSaved=   7.
 NSaved= 7 IEnMin= 7 EnMin= -398.029568629857     IErMin= 7 ErrMin= 1.96D-04
 ErrMax= 1.96D-04  0.00D+00 EMaxC= 1.00D-01 BMatC= 9.40D-06 BMatP= 4.36D-05
 IDIUse=3 WtCom= 9.98D-01 WtEn= 1.96D-03
 Coeff-Com:  0.502D-03 0.451D-02 0.297D-01 0.601D-01 0.144D+00 0.413D+00
 Coeff-Com:  0.349D+00
 Coeff-En:   0.000D+00 0.000D+00 0.000D+00 0.000D+00 0.000D+00 0.161D+00
 Coeff-En:   0.839D+00
 Coeff:      0.501D-03 0.450D-02 0.296D-01 0.600D-01 0.143D+00 0.412D+00
 Coeff:      0.350D+00
 Gap=     0.147 Goal=   None    Shift=    0.000
 RMSDP=7.50D-06 MaxDP=3.69D-04 DE=-2.88D-05 OVMax= 1.64D-03

 Initial convergence to 1.0D-05 achieved.  Increase integral accuracy.
 Cycle   8  Pass 1  IDiag  1:
 E= -398.029628913835     Delta-E=       -0.000060283978 Rises=F Damp=F
 DIIS: error= 4.00D-05 at cycle   1 NSaved=   1.
 NSaved= 1 IEnMin= 1 EnMin= -398.029628913835     IErMin= 1 ErrMin= 4.00D-05
 ErrMax= 4.00D-05  0.00D+00 EMaxC= 1.00D-01 BMatC= 6.84D-07 BMatP= 6.84D-07
 IDIUse=1 WtCom= 1.00D+00 WtEn= 0.00D+00
 Coeff-Com:  0.100D+01
 Coeff:      0.100D+01
 Gap=     0.147 Goal=   None    Shift=    0.000
 RMSDP=7.50D-06 MaxDP=3.69D-04 DE=-6.03D-05 OVMax= 1.31D-03

 Cycle   9  Pass 1  IDiag  1:
 E= -398.029626154465     Delta-E=        0.000002759370 Rises=F Damp=F
 DIIS: error= 1.22D-04 at cycle   2 NSaved=   2.
 NSaved= 2 IEnMin= 1 EnMin= -398.029628913835     IErMin= 1 ErrMin= 4.00D-05
 ErrMax= 1.22D-04  0.00D+00 EMaxC= 1.00D-01 BMatC= 3.47D-06 BMatP= 6.84D-07
 IDIUse=3 WtCom= 4.75D-01 WtEn= 5.25D-01
 Coeff-Com:  0.707D+00 0.293D+00
 Coeff-En:   0.795D+00 0.205D+00
 Coeff:      0.753D+00 0.247D+00
 Gap=     0.147 Goal=   None    Shift=    0.000
 RMSDP=3.91D-06 MaxDP=1.45D-04 DE= 2.76D-06 OVMax= 9.52D-04

 Cycle  10  Pass 1  IDiag  1:
 E= -398.029629564987     Delta-E=       -0.000003410522 Rises=F Damp=F
 DIIS: error= 7.15D-06 at cycle   3 NSaved=   3.
 NSaved= 3 IEnMin= 3 EnMin= -398.029629564987     IErMin= 3 ErrMin= 7.15D-06
 ErrMax= 7.15D-06  0.00D+00 EMaxC= 1.00D-01 BMatC= 3.43D-08 BMatP= 6.84D-07
 IDIUse=1 WtCom= 1.00D+00 WtEn= 0.00D+00
 Coeff-Com:  0.175D+00 0.170D-01 0.808D+00
 Coeff:      0.175D+00 0.170D-01 0.808D+00
 Gap=     0.147 Goal=   None    Shift=    0.000
 RMSDP=6.06D-07 MaxDP=3.42D-05 DE=-3.41D-06 OVMax= 7.88D-05

 Cycle  11  Pass 1  IDiag  1:
 E= -398.029629562391     Delta-E=        0.000000002596 Rises=F Damp=F
 DIIS: error= 8.05D-06 at cycle   4 NSaved=   4.
 NSaved= 4 IEnMin= 3 EnMin= -398.029629564987     IErMin= 3 ErrMin= 7.15D-06
 ErrMax= 8.05D-06  0.00D+00 EMaxC= 1.00D-01 BMatC= 3.44D-08 BMatP= 3.43D-08
 IDIUse=1 WtCom= 1.00D+00 WtEn= 0.00D+00
 Coeff-Com:  0.332D-01-0.287D-01 0.580D+00 0.416D+00
 Coeff:      0.332D-01-0.287D-01 0.580D+00 0.416D+00
 Gap=     0.147 Goal=   None    Shift=    0.000
 RMSDP=4.08D-07 MaxDP=2.00D-05 DE= 2.60D-09 OVMax= 7.42D-05

 Cycle  12  Pass 1  IDiag  1:
 E= -398.029629589349     Delta-E=       -0.000000026957 Rises=F Damp=F
 DIIS: error= 3.12D-06 at cycle   5 NSaved=   5.
 NSaved= 5 IEnMin= 5 EnMin= -398.029629589349     IErMin= 5 ErrMin= 3.12D-06
 ErrMax= 3.12D-06  0.00D+00 EMaxC= 1.00D-01 BMatC= 1.55D-09 BMatP= 3.43D-08
 IDIUse=1 WtCom= 1.00D+00 WtEn= 0.00D+00
 Coeff-Com:  0.406D-02-0.203D-01 0.267D+00 0.244D+00 0.506D+00
 Coeff:      0.406D-02-0.203D-01 0.267D+00 0.244D+00 0.506D+00
 Gap=     0.147 Goal=   None    Shift=    0.000
 RMSDP=1.31D-07 MaxDP=5.30D-06 DE=-2.70D-08 OVMax= 2.74D-05

 Cycle  13  Pass 1  IDiag  1:
 E= -398.029629590504     Delta-E=       -0.000000001156 Rises=F Damp=F
 DIIS: error= 1.82D-06 at cycle   6 NSaved=   6.
 NSaved= 6 IEnMin= 6 EnMin= -398.029629590504     IErMin= 6 ErrMin= 1.82D-06
 ErrMax= 1.82D-06  0.00D+00 EMaxC= 1.00D-01 BMatC= 5.44D-10 BMatP= 1.55D-09
 IDIUse=1 WtCom= 1.00D+00 WtEn= 0.00D+00
 Coeff-Com: -0.163D-03-0.133D-01 0.152D+00 0.149D+00 0.387D+00 0.326D+00
 Coeff:     -0.163D-03-0.133D-01 0.152D+00 0.149D+00 0.387D+00 0.326D+00
 Gap=     0.147 Goal=   None    Shift=    0.000
 RMSDP=5.10D-08 MaxDP=2.38D-06 DE=-1.16D-09 OVMax= 9.00D-06

 Cycle  14  Pass 1  IDiag  1:
 E= -398.029629591031     Delta-E=       -0.000000000527 Rises=F Damp=F
 DIIS: error= 8.47D-08 at cycle   7 NSaved=   7.
 NSaved= 7 IEnMin= 7 EnMin= -398.029629591031     IErMin= 7 ErrMin= 8.47D-08
 ErrMax= 8.47D-08  0.00D+00 EMaxC= 1.00D-01 BMatC= 4.70D-12 BMatP= 5.44D-10
 IDIUse=1 WtCom= 1.00D+00 WtEn= 0.00D+00
 Coeff-Com: -0.219D-03-0.369D-02 0.393D-01 0.403D-01 0.120D+00 0.137D+00
 Coeff-Com:  0.668D+00
 Coeff:     -0.219D-03-0.369D-02 0.393D-01 0.403D-01 0.120D+00 0.137D+00
 Coeff:      0.668D+00
 Gap=     0.147 Goal=   None    Shift=    0.000
 RMSDP=6.43D-09 MaxDP=3.19D-07 DE=-5.27D-10 OVMax= 6.77D-07

 SCF Done:  E(RS-VWN) =  -398.029629591     A.U. after   14 cycles
            NFock= 14  Conv=0.64D-08     -V/T= 2.0036
 KE= 3.966021531761D+02 PE=-1.649073171990D+03 EE= 4.968187670547D+02
 Leave Link  502 at Thu Aug 26 23:57:30 2021, MaxMem= 17179869184 cpu:       278.3
 (Enter /public3/home/sc51754/softwares/g09e01/l601.exe)
 Copying SCF densities to generalized density rwf, IOpCl= 0 IROHF=0.

 **********************************************************************

            Population analysis using the SCF density.

 **********************************************************************

 Orbital symmetries:
       Occupied  (A) (A) (A) (A) (A) (A) (A) (A) (A) (A) (A) (A)
                 (A) (A) (A) (A) (A) (A) (A) (A) (A) (A) (A) (A)
                 (A) (A) (A) (A) (A) (A)
       Virtual   (A) (A) (A) (A) (A) (A) (A) (A) (A) (A) (A) (A)
                 (A) (A) (A) (A) (A) (A) (A) (A) (A) (A) (A) (A)
                 (A) (A) (A) (A) (A) (A) (A) (A) (A) (A) (A) (A)
                 (A) (A) (A) (A) (A) (A) (A) (A) (A) (A) (A) (A)
                 (A) (A) (A) (A) (A) (A) (A) (A) (A) (A) (A) (A)
                 (A) (A) (A) (A) (A) (A) (A) (A) (A) (A) (A) (A)
                 (A) (A) (A) (A) (A) (A) (A) (A) (A) (A) (A) (A)
                 (A) (A) (A) (A) (A) (A) (A) (A) (A) (A) (A) (A)
                 (A) (A) (A) (A) (A) (A) (A) (A) (A) (A) (A) (A)
                 (A) (A) (A) (A) (A) (A) (A) (A) (A) (A) (A) (A)
                 (A) (A) (A) (A) (A) (A) (A) (A) (A) (A) (A) (A)
                 (A) (A) (A) (A) (A) (A) (A) (A) (A) (A) (A) (A)
                 (A) (A) (A) (A) (A) (A) (A) (A) (A) (A) (A) (A)
                 (A) (A) (A) (A) (A) (A) (A) (A) (A) (A) (A) (A)
                 (A) (A) (A) (A) (A) (A) (A) (A) (A) (A) (A) (A)
                 (A) (A) (A) (A) (A) (A) (A) (A) (A) (A) (A) (A)
                 (A) (A) (A) (A) (A) (A) (A) (A) (A) (A) (A) (A)
                 (A) (A) (A) (A) (A) (A) (A) (A) (A) (A) (A) (A)
                 (A) (A) (A) (A) (A) (A) (A) (A) (A) (A) (A) (A)
                 (A) (A) (A) (A) (A) (A) (A) (A) (A) (A) (A) (A)
                 (A) (A) (A) (A) (A) (A) (A) (A) (A) (A) (A) (A)
                 (A) (A) (A) (A) (A) (A) (A) (A) (A) (A) (A) (A)
                 (A) (A) (A) (A) (A) (A) (A) (A) (A) (A) (A) (A)
                 (A) (A) (A) (A) (A) (A) (A) (A) (A) (A) (A) (A)
                 (A) (A) (A) (A) (A) (A) (A) (A) (A) (A) (A) (A)
                 (A) (A) (A) (A) (A) (A) (A) (A)
 The electronic state is 1-A.
 Alpha  occ. eigenvalues --  -18.63742 -18.61182 -13.88381  -9.89711  -9.84252
 Alpha  occ. eigenvalues --   -9.82298  -9.81102  -9.80790  -1.00312  -0.93861
 Alpha  occ. eigenvalues --   -0.88536  -0.75873  -0.71106  -0.61450  -0.59753
 Alpha  occ. eigenvalues --   -0.53134  -0.51243  -0.48935  -0.46105  -0.42557
 Alpha  occ. eigenvalues --   -0.42534  -0.39251  -0.37903  -0.36540  -0.34649
 Alpha  occ. eigenvalues --   -0.34420  -0.29913  -0.29602  -0.26770  -0.24385
 Alpha virt. eigenvalues --   -0.09659  -0.06937  -0.02301  -0.00848   0.01343
 Alpha virt. eigenvalues --    0.03102   0.04112   0.05901   0.06076   0.08110
 Alpha virt. eigenvalues --    0.09554   0.11132   0.12248   0.13990   0.14518
 Alpha virt. eigenvalues --    0.14820   0.15922   0.16447   0.18053   0.19571
 Alpha virt. eigenvalues --    0.20656   0.21211   0.22518   0.23731   0.24042
 Alpha virt. eigenvalues --    0.25151   0.25721   0.26258   0.27501   0.27898
 Alpha virt. eigenvalues --    0.29294   0.30265   0.30530   0.31388   0.33588
 Alpha virt. eigenvalues --    0.36095   0.37112   0.38499   0.39158   0.41499
 Alpha virt. eigenvalues --    0.44244   0.46021   0.47120   0.47990   0.49008
 Alpha virt. eigenvalues --    0.52871   0.53605   0.55596   0.56886   0.57524
 Alpha virt. eigenvalues --    0.58308   0.61636   0.62894   0.65930   0.67741
 Alpha virt. eigenvalues --    0.69837   0.70945   0.73314   0.74133   0.77546
 Alpha virt. eigenvalues --    0.81040   0.83293   0.84354   0.84979   0.86547
 Alpha virt. eigenvalues --    0.88031   0.89955   0.90309   0.91559   0.94325
 Alpha virt. eigenvalues --    0.95732   1.00712   1.01085   1.02647   1.04785
 Alpha virt. eigenvalues --    1.06065   1.06405   1.08131   1.08601   1.10215
 Alpha virt. eigenvalues --    1.11998   1.14088   1.15079   1.16680   1.17955
 Alpha virt. eigenvalues --    1.18856   1.19705   1.23078   1.23558   1.25727
 Alpha virt. eigenvalues --    1.32527   1.32755   1.35369   1.35945   1.40587
 Alpha virt. eigenvalues --    1.41116   1.42527   1.43614   1.45742   1.47172
 Alpha virt. eigenvalues --    1.48944   1.50371   1.52484   1.53368   1.56453
 Alpha virt. eigenvalues --    1.57418   1.58937   1.61429   1.61609   1.65178
 Alpha virt. eigenvalues --    1.67504   1.71454   1.73155   1.76183   1.77259
 Alpha virt. eigenvalues --    1.77772   1.78861   1.80195   1.81518   1.86133
 Alpha virt. eigenvalues --    1.87730   1.88680   1.91242   1.94382   1.98023
 Alpha virt. eigenvalues --    2.01405   2.03591   2.05355   2.06919   2.08108
 Alpha virt. eigenvalues --    2.09304   2.13360   2.13783   2.16014   2.18083
 Alpha virt. eigenvalues --    2.22330   2.27734   2.29678   2.39257   2.52633
 Alpha virt. eigenvalues --    2.59636   2.68261   2.76540   2.84429   2.84924
 Alpha virt. eigenvalues --    2.87574   2.91180   3.04893   3.07359   3.10085
 Alpha virt. eigenvalues --    3.13242   3.14930   3.16180   3.20216   3.24313
 Alpha virt. eigenvalues --    3.26314   3.26938   3.27541   3.30701   3.31444
 Alpha virt. eigenvalues --    3.34370   3.36561   3.38600   3.41626   3.46239
 Alpha virt. eigenvalues --    3.47274   3.49252   3.50428   3.51364   3.52851
 Alpha virt. eigenvalues --    3.57160   3.57815   3.59089   3.61965   3.63470
 Alpha virt. eigenvalues --    3.67343   3.68617   3.69662   3.72290   3.76415
 Alpha virt. eigenvalues --    3.79329   3.80745   3.82471   3.83320   3.85911
 Alpha virt. eigenvalues --    3.88630   3.90163   3.93512   3.94932   3.94985
 Alpha virt. eigenvalues --    3.96611   3.97860   3.99068   4.01938   4.05858
 Alpha virt. eigenvalues --    4.06269   4.06625   4.07047   4.09098   4.10731
 Alpha virt. eigenvalues --    4.11674   4.14297   4.16337   4.18127   4.19545
 Alpha virt. eigenvalues --    4.19709   4.20821   4.22321   4.24126   4.27366
 Alpha virt. eigenvalues --    4.28181   4.29212   4.29897   4.32649   4.32902
 Alpha virt. eigenvalues --    4.34171   4.34805   4.36003   4.36743   4.39974
 Alpha virt. eigenvalues --    4.40929   4.41524   4.43146   4.45255   4.46925
 Alpha virt. eigenvalues --    4.49007   4.51015   4.53666   4.54697   4.55169
 Alpha virt. eigenvalues --    4.57846   4.62217   4.65093   4.65738   4.70886
 Alpha virt. eigenvalues --    4.72523   4.76260   4.77945   4.78025   4.79230
 Alpha virt. eigenvalues --    4.80848   4.85027   4.85587   4.89510   4.90838
 Alpha virt. eigenvalues --    4.94155   4.98569   4.98809   5.02435   5.07704
 Alpha virt. eigenvalues --    5.08004   5.11651   5.11970   5.17474   5.20831
 Alpha virt. eigenvalues --    5.22489   5.23391   5.26927   5.29049   5.30077
 Alpha virt. eigenvalues --    5.31566   5.34413   5.34999   5.42858   5.44071
 Alpha virt. eigenvalues --    5.50781   5.51259   5.55232   5.56815   5.65519
 Alpha virt. eigenvalues --    5.67325   5.70932   5.72502   5.80600   5.85203
 Alpha virt. eigenvalues --    5.90119   5.92308   5.93717   5.94133   5.98331
 Alpha virt. eigenvalues --    6.06939   6.10133   6.11110   6.12510   6.16528
 Alpha virt. eigenvalues --    6.17010   6.18710   6.24238   6.28937   6.35545
 Alpha virt. eigenvalues --    6.38945   6.47028   6.51127   6.57618   6.75338
 Alpha virt. eigenvalues --    6.79577   6.84505   7.02014   7.19542   7.29055
 Alpha virt. eigenvalues --    9.19235  12.05788  12.61588  15.38418  15.41343
 Alpha virt. eigenvalues --   17.29922  18.56281  22.23511
          Condensed to atoms (all electrons):
               1          2          3          4          5          6
     1  O    7.851617  -0.085291   0.302571  -0.055642   0.004240   0.008498
     2  N   -0.085291   6.747360   0.418858  -0.019170   0.479453  -0.034199
     3  C    0.302571   0.418858   4.570332   0.456282  -0.069845  -0.046322
     4  C   -0.055642  -0.019170   0.456282   5.027449  -0.050103   0.455967
     5  C    0.004240   0.479453  -0.069845  -0.050103   4.729115  -0.069142
     6  C    0.008498  -0.034199  -0.046322   0.455967  -0.069142   4.873336
     7  C   -0.000035  -0.030817  -0.064008  -0.034737   0.467416   0.433328
     8  H    0.347526   0.008803  -0.025632   0.007751  -0.000022  -0.001262
     9  H    0.004461   0.007158  -0.033383   0.427957  -0.002617  -0.032420
    10  H   -0.000500  -0.035418   0.007243  -0.004774   0.435657   0.008800
    11  H   -0.000389  -0.001850   0.008852  -0.034901   0.008776   0.429236
    12  H    0.000059   0.007703  -0.001233   0.008054  -0.025747  -0.035975
    13  O   -0.030392  -0.045496  -0.003209   0.001071  -0.001661   0.000210
    14  H    0.001190   0.003729   0.000084   0.000154   0.000155  -0.000025
    15  H   -0.000265   0.041241  -0.005779   0.001454   0.003178  -0.000554
               7          8          9         10         11         12
     1  O   -0.000035   0.347526   0.004461  -0.000500  -0.000389   0.000059
     2  N   -0.030817   0.008803   0.007158  -0.035418  -0.001850   0.007703
     3  C   -0.064008  -0.025632  -0.033383   0.007243   0.008852  -0.001233
     4  C   -0.034737   0.007751   0.427957  -0.004774  -0.034901   0.008054
     5  C    0.467416  -0.000022  -0.002617   0.435657   0.008776  -0.025747
     6  C    0.433328  -0.001262  -0.032420   0.008800   0.429236  -0.035975
     7  C    5.084860   0.000334   0.009005  -0.066706  -0.039456   0.427327
     8  H    0.000334   0.400021   0.000240  -0.000103   0.000005  -0.000008
     9  H    0.009005   0.000240   0.532402   0.000173  -0.009313   0.000004
    10  H   -0.066706  -0.000103   0.000173   0.565114  -0.000222  -0.005473
    11  H   -0.039456   0.000005  -0.009313  -0.000222   0.550534  -0.008505
    12  H    0.427327  -0.000008   0.000004  -0.005473  -0.008505   0.549779
    13  O   -0.000494   0.065392   0.000002   0.000394  -0.000005   0.000011
    14  H    0.000083  -0.003407  -0.000002  -0.000040   0.000000  -0.000001
    15  H    0.002014  -0.008710  -0.000061  -0.001217   0.000025  -0.000042
              13         14         15
     1  O   -0.030392   0.001190  -0.000265
     2  N   -0.045496   0.003729   0.041241
     3  C   -0.003209   0.000084  -0.005779
     4  C    0.001071   0.000154   0.001454
     5  C   -0.001661   0.000155   0.003178
     6  C    0.000210  -0.000025  -0.000554
     7  C   -0.000494   0.000083   0.002014
     8  H    0.065392  -0.003407  -0.008710
     9  H    0.000002  -0.000002  -0.000061
    10  H    0.000394  -0.000040  -0.001217
    11  H   -0.000005   0.000000   0.000025
    12  H    0.000011  -0.000001  -0.000042
    13  O    7.757002   0.359324   0.338326
    14  H    0.359324   0.429211  -0.018024
    15  H    0.338326  -0.018024   0.421528
 Mulliken charges:
               1
     1  O   -0.347647
     2  N   -0.462064
     3  C    0.485188
     4  C   -0.186812
     5  C    0.091149
     6  C    0.010524
     7  C   -0.188112
     8  H    0.209072
     9  H    0.096393
    10  H    0.097070
    11  H    0.097214
    12  H    0.084046
    13  O   -0.440476
    14  H    0.227569
    15  H    0.226885
 Sum of Mulliken charges =  -0.00000
 Mulliken charges with hydrogens summed into heavy atoms:
               1
     1  O   -0.138575
     2  N   -0.462064
     3  C    0.485188
     4  C   -0.090419
     5  C    0.188219
     6  C    0.107738
     7  C   -0.104065
    13  O    0.013977
 Electronic spatial extent (au):  <R**2>=           1069.8962
 Charge=             -0.0000 electrons
 Dipole moment (field-independent basis, Debye):
    X=             -1.8015    Y=             -1.2895    Z=              1.3636  Tot=              2.6015
 Quadrupole moment (field-independent basis, Debye-Ang):
   XX=            -42.0321   YY=            -44.8756   ZZ=            -49.7356
   XY=             -2.7937   XZ=              5.4341   YZ=             -1.3704
 Traceless Quadrupole moment (field-independent basis, Debye-Ang):
   XX=              3.5157   YY=              0.6721   ZZ=             -4.1878
   XY=             -2.7937   XZ=              5.4341   YZ=             -1.3704
 Octapole moment (field-independent basis, Debye-Ang**2):
  XXX=             11.0454  YYY=             -7.4039  ZZZ=              1.1034  XYY=             -1.0965
  XXY=             -4.7685  XXZ=             20.6216  XZZ=             12.4555  YZZ=              0.3780
  YYZ=              1.3111  XYZ=             -5.2765
 Hexadecapole moment (field-independent basis, Debye-Ang**3):
 XXXX=           -840.3853 YYYY=           -357.6975 ZZZZ=            -55.0485 XXXY=            -22.4426
 XXXZ=             77.9343 YYYX=            -12.9445 YYYZ=             -1.5847 ZZZX=              5.1786
 ZZZY=             -1.4536 XXYY=           -202.1838 XXZZ=           -169.4560 YYZZ=            -77.8929
 XXYZ=            -19.0709 YYXZ=              5.3962 ZZXY=             -3.8352
 N-N= 3.576226221683D+02 E-N=-1.649073173237D+03  KE= 3.966021531761D+02
 No NMR shielding tensors so no spin-rotation constants.
 Leave Link  601 at Thu Aug 26 23:57:32 2021, MaxMem= 17179869184 cpu:        60.1
 (Enter /public3/home/sc51754/softwares/g09e01/l701.exe)
 Compute integral first derivatives.
 ... and contract with generalized density number  0.
 Leave Link  701 at Thu Aug 26 23:57:33 2021, MaxMem= 17179869184 cpu:        63.3
 (Enter /public3/home/sc51754/softwares/g09e01/l702.exe)
 L702 exits ... SP integral derivatives will be done elsewhere.
 Leave Link  702 at Thu Aug 26 23:57:33 2021, MaxMem= 17179869184 cpu:         0.8
 (Enter /public3/home/sc51754/softwares/g09e01/l703.exe)
 Compute integral first derivatives, UseDBF=F ICtDFT=           0.
 Integral derivatives from FoFJK, PRISM(SPDF).
 Calling FoFJK, ICntrl=      2527 FMM=F ISym2X=0 I1Cent= 0 IOpClX= 0 NMat=1 NMatS=1 NMatT=0.
 FoFJK:  IHMeth= 1 ICntrl=    2527 DoSepK=F KAlg= 0 I1Cent=   0 FoldK=F
 IRaf=         0 NMat=   1 IRICut=       1 DoRegI=T DoRafI=F ISym2E= 0.
 FoFCou: FMM=F IPFlag=           0 FMFlag=      100000 FMFlg1=         800
         NFxFlg=           0 DoJE=F BraDBF=F KetDBF=F FulRan=T
         wScrn=  0.000000 ICntrl=    2527 IOpCl=  0 I1Cent=           0 NGrid=           0
         NMat0=    1 NMatS0=      1 NMatT0=    0 NMatD0=    1 NMtDS0=    0 NMtDT0=    0
 Symmetry not used in FoFCou.
 Leave Link  703 at Thu Aug 26 23:57:36 2021, MaxMem= 17179869184 cpu:       174.1
 (Enter /public3/home/sc51754/softwares/g09e01/l716.exe)
 Dipole        =-7.08761686D-01-5.07340591D-01 5.36480708D-01
 ***** Axes restored to original set *****
 -------------------------------------------------------------------
 Center     Atomic                   Forces (Hartrees/Bohr)
 Number     Number              X              Y              Z
 -------------------------------------------------------------------
      1        8          -0.021218133   -0.000231696    0.000134000
      2        7          -0.003182091    0.001123100    0.000087265
      3        6           0.006747752    0.004055636    0.000041814
      4        6           0.001618384   -0.013178080   -0.000078062
      5        6           0.001099050    0.012899169    0.000088286
      6        6           0.011790152   -0.006038105   -0.000053397
      7        6           0.009602918    0.009343866   -0.000006808
      8        1           0.012775365   -0.012137511   -0.000166435
      9        1          -0.000037112    0.007132321    0.000017260
     10        1           0.001251220   -0.006963062   -0.000058821
     11        1          -0.006178829    0.002770214    0.000029546
     12        1          -0.005239086   -0.004313819   -0.000008702
     13        8           0.000857957    0.010864020   -0.006621695
     14        1           0.004351067   -0.001812878    0.006558411
     15        1          -0.014238613   -0.003513176    0.000037337
 -------------------------------------------------------------------
 Cartesian Forces:  Max     0.021218133 RMS     0.006942393
 Leave Link  716 at Thu Aug 26 23:57:36 2021, MaxMem= 17179869184 cpu:         2.1
 (Enter /public3/home/sc51754/softwares/g09e01/l103.exe)

 GradGradGradGradGradGradGradGradGradGradGradGradGradGradGradGradGradGrad
 Berny optimization.
 FormGI is forming the generalized inverse of G from B-inverse, IUseBI=4.
 Internal  Forces:  Max     0.012803714 RMS     0.003537548
 Search for a local minimum.
 Step number   1 out of a maximum of   88
 All quantities printed in internal units (Hartrees-Bohrs-Radians)
 RMS Force = .35375D-02 SwitMx=.10000D-02 MixMth= 1
 Mixed Optimization -- RFO/linear search
 Second derivative matrix not updated -- first step.
 ITU=  0
     Eigenvalues ---    0.00525   0.00832   0.01684   0.02094   0.02184
     Eigenvalues ---    0.02225   0.02239   0.02286   0.02319   0.02409
     Eigenvalues ---    0.02460   0.05224   0.06028   0.06507   0.08515
     Eigenvalues ---    0.13089   0.16000   0.16000   0.16000   0.16000
     Eigenvalues ---    0.19207   0.20418   0.22000   0.22270   0.23481
     Eigenvalues ---    0.35621   0.35778   0.36026   0.36038   0.41939
     Eigenvalues ---    0.43696   0.46841   0.47322   0.48462   0.48884
     Eigenvalues ---    0.52273   0.55339   0.55352   0.56565
 RFO step:  Lambda=-3.00657506D-03 EMin= 5.24515301D-03
 Linear search not attempted -- first point.
 Iteration  1 RMS(Cart)=  0.01864695 RMS(Int)=  0.00011494
 Iteration  2 RMS(Cart)=  0.00007633 RMS(Int)=  0.00004277
 Iteration  3 RMS(Cart)=  0.00000001 RMS(Int)=  0.00004277
 ITry= 1 IFail=0 DXMaxC= 8.65D-02 DCOld= 1.00D+10 DXMaxT= 3.00D-01 DXLimC= 3.00D+00 Rises=F
 Variable       Old X    -DE/DX   Delta X   Delta X   Delta X     New X
                                 (Linear)    (Quad)   (Total)
    R1        2.53090  -0.01280   0.00000  -0.02466  -0.02470   2.50620
    R2        1.85517   0.01071   0.00000   0.02149   0.02146   1.87663
    R3        2.51733  -0.00409   0.00000  -0.00973  -0.00972   2.50761
    R4        2.53185  -0.00845   0.00000  -0.01493  -0.01493   2.51692
    R5        3.65357  -0.00531   0.00000  -0.09659  -0.09654   3.55703
    R6        2.64886  -0.00693   0.00000  -0.01542  -0.01542   2.63344
    R7        2.60507  -0.00605   0.00000  -0.01188  -0.01188   2.59319
    R8        2.04022   0.00712   0.00000   0.01958   0.01958   2.05981
    R9        2.60933  -0.00538   0.00000  -0.01074  -0.01074   2.59860
   R10        2.04678   0.00708   0.00000   0.01970   0.01970   2.06648
   R11        2.63885  -0.00685   0.00000  -0.01420  -0.01420   2.62465
   R12        2.04430   0.00677   0.00000   0.01877   0.01877   2.06307
   R13        2.04041   0.00679   0.00000   0.01868   0.01868   2.05909
   R14        3.46012  -0.00486   0.00000  -0.07969  -0.07981   3.38032
   R15        3.61122  -0.00282   0.00000  -0.04412  -0.04399   3.56723
   R16        1.81521   0.00805   0.00000   0.01446   0.01446   1.82967
   R17        1.85250   0.00916   0.00000   0.01811   0.01806   1.87057
    A1        1.91487  -0.00093   0.00000  -0.01456  -0.01463   1.90025
    A2        2.06532   0.00034   0.00000   0.00080   0.00078   2.06610
    A3        1.87270   0.00178   0.00000   0.00692   0.00699   1.87969
    A4        2.34514  -0.00213   0.00000  -0.00772  -0.00777   2.33737
    A5        2.07766   0.00308   0.00000   0.00391   0.00391   2.08157
    A6        2.06520  -0.00255   0.00000  -0.00411  -0.00411   2.06108
    A7        2.14032  -0.00053   0.00000   0.00019   0.00020   2.14053
    A8        2.06244   0.00014   0.00000  -0.00041  -0.00041   2.06203
    A9        2.08413  -0.00055   0.00000  -0.00271  -0.00271   2.08142
   A10        2.13661   0.00040   0.00000   0.00312   0.00312   2.13973
   A11        2.15286  -0.00000   0.00000  -0.00152  -0.00151   2.15135
   A12        2.02165  -0.00005   0.00000   0.00043   0.00043   2.02207
   A13        2.10868   0.00005   0.00000   0.00109   0.00108   2.10976
   A14        2.08831  -0.00010   0.00000   0.00006   0.00005   2.08836
   A15        2.09381  -0.00002   0.00000  -0.00045  -0.00044   2.09337
   A16        2.10106   0.00012   0.00000   0.00039   0.00039   2.10145
   A17        2.05711   0.00014   0.00000   0.00088   0.00089   2.05800
   A18        2.10400  -0.00020   0.00000  -0.00125  -0.00125   2.10276
   A19        2.12207   0.00006   0.00000   0.00036   0.00036   2.12243
   A20        2.78431   0.00030   0.00000   0.00325   0.00332   2.78764
   A21        2.25759  -0.00293   0.00000  -0.01095  -0.01103   2.24656
   A22        2.11576  -0.00007   0.00000  -0.00483  -0.00483   2.11094
   A23        1.86403   0.00078   0.00000   0.00401   0.00416   1.86819
   A24        1.30192  -0.00101   0.00000   0.01469   0.01477   1.31669
   A25        2.52674  -0.00326   0.00000  -0.00941  -0.00937   2.51737
    D1        0.00739   0.00009   0.00000  -0.00131  -0.00134   0.00604
    D2       -3.13430   0.00015   0.00000  -0.00020  -0.00024  -3.13454
    D3        0.07175  -0.00001   0.00000  -0.00160  -0.00164   0.07011
    D4       -0.00835  -0.00029   0.00000   0.00176   0.00184  -0.00651
    D5       -3.13923   0.00008   0.00000   0.00131   0.00130  -3.13793
    D6        0.00246   0.00002   0.00000   0.00015   0.00014   0.00261
    D7       -0.00357   0.00011   0.00000   0.00041   0.00038  -0.00319
    D8        3.13812   0.00005   0.00000  -0.00075  -0.00077   3.13735
    D9       -0.00196  -0.00000   0.00000  -0.00025  -0.00024  -0.00220
   D10        3.13867   0.00000   0.00000  -0.00062  -0.00062   3.13805
   D11       -3.13562  -0.00007   0.00000   0.00088   0.00089  -3.13473
   D12        0.00500  -0.00006   0.00000   0.00051   0.00052   0.00552
   D13       -0.00000  -0.00019   0.00000   0.00015   0.00021   0.00020
   D14       -0.09978   0.00012   0.00000   0.01121   0.01117  -0.08861
   D15        3.13428  -0.00013   0.00000  -0.00090  -0.00086   3.13343
   D16        3.03451   0.00018   0.00000   0.01016   0.01011   3.04462
   D17        3.14017  -0.00007   0.00000  -0.00096  -0.00095   3.13922
   D18        0.00037  -0.00005   0.00000  -0.00078  -0.00078  -0.00041
   D19       -0.00152  -0.00001   0.00000   0.00019   0.00019  -0.00132
   D20       -3.14132   0.00001   0.00000   0.00037   0.00037  -3.14095
   D21       -0.00000  -0.00001   0.00000  -0.00042  -0.00042  -0.00043
   D22       -3.14062   0.00001   0.00000   0.00012   0.00011  -3.14051
   D23        3.13975  -0.00003   0.00000  -0.00062  -0.00061   3.13913
   D24       -0.00088  -0.00001   0.00000  -0.00008  -0.00007  -0.00095
   D25        0.00051  -0.00001   0.00000   0.00001   0.00001   0.00052
   D26        3.14103  -0.00000   0.00000  -0.00011  -0.00011   3.14092
   D27       -3.14007  -0.00002   0.00000   0.00040   0.00041  -3.13966
   D28        0.00046  -0.00001   0.00000   0.00028   0.00029   0.00074
   D29        0.00048   0.00002   0.00000   0.00033   0.00033   0.00081
   D30       -3.14004   0.00001   0.00000   0.00045   0.00045  -3.13959
   D31        3.14109   0.00000   0.00000  -0.00021  -0.00021   3.14088
   D32        0.00058  -0.00001   0.00000  -0.00009  -0.00009   0.00049
   D33       -1.92611  -0.00040   0.00000  -0.00406  -0.00401  -1.93012
   D34        0.00552   0.00030   0.00000  -0.00125  -0.00134   0.00418
   D35        1.52863  -0.00073   0.00000   0.01386   0.01374   1.54237
   D36        2.18999  -0.00061   0.00000  -0.01266  -0.01263   2.17736
         Item               Value     Threshold  Converged?
 Maximum Force            0.012804     0.000450     NO 
 RMS     Force            0.003538     0.000300     NO 
 Maximum Displacement     0.086532     0.001800     NO 
 RMS     Displacement     0.018654     0.001200     NO 
 Predicted change in Energy=-1.537667D-03
 Lowest energy point so far.  Saving SCF results.
 GradGradGradGradGradGradGradGradGradGradGradGradGradGradGradGradGradGrad

 Leave Link  103 at Thu Aug 26 23:57:37 2021, MaxMem= 17179869184 cpu:        55.8
 (Enter /public3/home/sc51754/softwares/g09e01/l202.exe)
                          Input orientation:                          
 ---------------------------------------------------------------------
 Center     Atomic      Atomic             Coordinates (Angstroms)
 Number     Number       Type             X           Y           Z
 ---------------------------------------------------------------------
      1          8           0        1.207384    1.444618   -0.004974
      2          7           0        0.312471   -0.662388   -0.006845
      3          6           0        0.142836    0.653681   -0.000557
      4          6           0       -1.117050    1.249161    0.009361
      5          6           0       -0.768816   -1.440052   -0.006550
      6          6           0       -2.219342    0.431829    0.011073
      7          6           0       -2.052465   -0.946988    0.002478
      8          1           0        2.025592    0.882003   -0.018581
      9          1           0       -1.192297    2.336555    0.013561
     10          1           0       -0.581442   -2.517378   -0.015351
     11          1           0       -3.220488    0.867185    0.017733
     12          1           0       -2.905126   -1.625407    0.001683
     13          8           0        3.057139   -0.577847   -0.085718
     14          1           0        3.560064   -0.868206    0.689011
     15          1           0        2.164028   -1.000595   -0.026884
 ---------------------------------------------------------------------
                    Distance matrix (angstroms):
                    1          2          3          4          5
     1  O    0.000000
     2  N    2.289180   0.000000
     3  C    1.326221   1.326972   0.000000
     4  C    2.332681   2.387009   1.393559   0.000000
     5  C    3.496668   1.331895   2.283608   2.711713   0.000000
     6  C    3.573297   2.758207   2.372601   1.372255   2.368180
     7  C    4.043074   2.382017   2.716891   2.387073   1.375118
     8  H    0.993069   2.306526   1.896636   3.164141   3.633290
     9  H    2.560149   3.355354   2.148218   1.090002   3.800330
    10  H    4.347116   2.059161   3.252755   3.804511   1.093534
    11  H    4.465421   3.849934   3.370143   2.137855   3.366694
    12  H    5.132040   3.358633   3.805827   3.385324   2.144353
    13  O    2.741984   2.747102   3.164977   4.557505   3.922702
    14  H    3.371331   3.327677   3.803826   5.178857   4.421539
    15  H    2.625779   1.882299   2.612000   3.978466   2.965655
                    6          7          8          9         10
     6  C    0.000000
     7  C    1.388905   0.000000
     8  H    4.268841   4.469474   0.000000
     9  H    2.163980   3.394358   3.531511   0.000000
    10  H    3.373608   2.151825   4.283974   4.892305   0.000000
    11  H    1.091729   2.157715   5.246226   2.504520   4.291960
    12  H    2.168549   1.089626   5.531681   4.316372   2.489058
    13  O    5.373087   5.123680   1.788786   5.153766   4.123834
    14  H    5.962485   5.654911   2.432801   5.771625   4.513089
    15  H    4.611639   4.216936   1.887699   4.733194   3.136618
                   11         12         13         14         15
    11  H    0.000000
    12  H    2.512514   0.000000
    13  O    6.442625   6.054224   0.000000
    14  H    7.031221   6.545568   0.968218   0.000000
    15  H    5.699439   5.107596   0.989860   1.574467   0.000000
 Stoichiometry    C5H7NO2
 Framework group  C1[X(C5H7NO2)]
 Deg. of freedom    39
 Full point group                 C1      NOp   1
 RotChk:  IX=0 Diff= 2.94D-03
 Largest Abelian subgroup         C1      NOp   1
 Largest concise Abelian subgroup C1      NOp   1
                         Standard orientation:                         
 ---------------------------------------------------------------------
 Center     Atomic      Atomic             Coordinates (Angstroms)
 Number     Number       Type             X           Y           Z
 ---------------------------------------------------------------------
      1          8           0        1.209238    1.441206   -0.004276
      2          7           0        0.310045   -0.663977   -0.006374
      3          6           0        0.143082    0.652435   -0.000253
      4          6           0       -1.115594    1.250475    0.009087
      5          6           0       -0.772820   -1.439442   -0.006481
      6          6           0       -2.219546    0.435385    0.010390
      7          6           0       -2.055469   -0.943768    0.001967
      8          1           0        2.026307    0.876928   -0.017495
      9          1           0       -1.188632    2.338020    0.013177
     10          1           0       -0.587634   -2.517147   -0.015126
     11          1           0       -3.219807    0.872777    0.016595
     12          1           0       -2.909507   -1.620452    0.000859
     13          8           0        3.054912   -0.585021   -0.084089
     14          1           0        3.556918   -0.876345    0.690874
     15          1           0        2.160919   -1.005948   -0.025603
 ---------------------------------------------------------------------
 Rotational constants (GHZ):      4.0443668      1.4474674      1.0685694
 Leave Link  202 at Thu Aug 26 23:57:38 2021, MaxMem= 17179869184 cpu:         4.9
 (Enter /public3/home/sc51754/softwares/g09e01/l301.exe)
 Basis read from rwf:  (5D, 7F)
 No pseudopotential information found on rwf file.
 There are   385 symmetry adapted cartesian basis functions of A   symmetry.
 There are   338 symmetry adapted basis functions of A   symmetry.
   338 basis functions,   566 primitive gaussians,   385 cartesian basis functions
    30 alpha electrons       30 beta electrons
       nuclear repulsion energy       359.7039245486 Hartrees.
 IExCor=  205 DFT=T Ex=S Corr=VWN ExCW=0 ScaHFX=  0.000000
 ScaDFX=  1.000000  1.000000  1.000000  1.000000 ScalE2=  1.000000  1.000000
 IRadAn=      0 IRanWt=     -1 IRanGd=            0 ICorTp=0 IEmpDi=  4
 NAtoms=   15 NActive=   15 NUniq=   15 SFac= 1.00D+00 NAtFMM=   60 NAOKFM=F Big=F
 Integral buffers will be    131072 words long.
 Raffenetti 2 integral format.
 Two-electron integral symmetry is turned on.
 No density basis found on file   724.
 Leave Link  301 at Thu Aug 26 23:57:38 2021, MaxMem= 17179869184 cpu:         1.2
 (Enter /public3/home/sc51754/softwares/g09e01/l302.exe)
 NPDir=0 NMtPBC=     1 NCelOv=     1 NCel=       1 NClECP=     1 NCelD=      1
         NCelK=      1 NCelE2=     1 NClLst=     1 CellRange=     0.0.
 One-electron integrals computed using PRISM.
 NBasis=   338 RedAO= T EigKep=  1.43D-04  NBF=   338
 NBsUse=   338 1.00D-06 EigRej= -1.00D+00 NBFU=   338
 Precomputing XC quadrature grid using
 IXCGrd= 4 IRadAn=           0 IRanWt=          -1 IRanGd=           0 AccXCQ= 0.00D+00.
 Generated NRdTot=       0 NPtTot=           0 NUsed=           0 NTot=          32
 NSgBfM=   384   384   384   384   385 MxSgAt=    15 MxSgA2=    15.
 Leave Link  302 at Thu Aug 26 23:57:39 2021, MaxMem= 17179869184 cpu:        47.7
 (Enter /public3/home/sc51754/softwares/g09e01/l303.exe)
 DipDrv:  MaxL=1.
 Leave Link  303 at Thu Aug 26 23:57:39 2021, MaxMem= 17179869184 cpu:        10.4
 (Enter /public3/home/sc51754/softwares/g09e01/l401.exe)
 Initial guess from the checkpoint file:  "HY_H2O_SVWN_PC2_OPT_FREQ.chk"
 B after Tr=     0.000000    0.000000    0.000000
         Rot=    1.000000    0.000012   -0.000027    0.000652 Ang=   0.07 deg.
 Guess basis will be translated and rotated to current coordinates.
 JPrj=2 DoOrth=T DoCkMO=T.
 Generating alternative initial guess.
 ExpMin= 7.41D-02 ExpMax= 1.48D+04 ExpMxC= 5.05D+02 IAcc=2 IRadAn=         4 AccDes= 0.00D+00
 Harris functional with IExCor=  205 and IRadAn=       4 diagonalized for initial guess.
 HarFok:  IExCor=  205 AccDes= 0.00D+00 IRadAn=         4 IDoV= 1 UseB2=F ITyADJ=14
 ICtDFT=  3500011 ScaDFX=  1.000000  1.000000  1.000000  1.000000
 FoFCou: FMM=F IPFlag=           0 FMFlag=      100000 FMFlg1=           0
         NFxFlg=           0 DoJE=T BraDBF=F KetDBF=T FulRan=T
         wScrn=  0.000000 ICntrl=     500 IOpCl=  0 I1Cent=   200000004 NGrid=           0
         NMat0=    1 NMatS0=      1 NMatT0=    0 NMatD0=    1 NMtDS0=    0 NMtDT0=    0
 Petite list used in FoFCou.
 Harris En= -398.224843939464    
 Leave Link  401 at Thu Aug 26 23:57:40 2021, MaxMem= 17179869184 cpu:        81.9
 (Enter /public3/home/sc51754/softwares/g09e01/l502.exe)
 Closed shell SCF:
 Using DIIS extrapolation, IDIIS=  1040.
 Integral symmetry usage will be decided dynamically.
 Keep J ints in memory in canonical form, NReq=1670404686.
 IVT=      490665 IEndB=      490665 NGot= 17179869184 MDV= 15538220534
 LenX= 15538220534 LenY= 15538071868
 Requested convergence on RMS density matrix=1.00D-08 within 128 cycles.
 Requested convergence on MAX density matrix=1.00D-06.
 Requested convergence on             energy=1.00D-06.
 No special actions if energy rises.
 FoFCou: FMM=F IPFlag=           0 FMFlag=           0 FMFlg1=           0
         NFxFlg=           0 DoJE=F BraDBF=F KetDBF=F FulRan=T
         wScrn=  0.000000 ICntrl=     600 IOpCl=  0 I1Cent=           0 NGrid=           0
         NMat0=    1 NMatS0=  57291 NMatT0=    0 NMatD0=    1 NMtDS0=    0 NMtDT0=    0
 Symmetry not used in FoFCou.
 Integral accuracy reduced to 1.0D-05 until final iterations.

 Cycle   1  Pass 0  IDiag  1:
 E= -398.031130840910    
 DIIS: error= 1.47D-03 at cycle   1 NSaved=   1.
 NSaved= 1 IEnMin= 1 EnMin= -398.031130840910     IErMin= 1 ErrMin= 1.47D-03
 ErrMax= 1.47D-03  0.00D+00 EMaxC= 1.00D-01 BMatC= 7.06D-04 BMatP= 7.06D-04
 IDIUse=3 WtCom= 9.85D-01 WtEn= 1.47D-02
 Coeff-Com:  0.100D+01
 Coeff-En:   0.100D+01
 Coeff:      0.100D+01
 Gap=     0.539 Goal=   None    Shift=    0.000
 GapD=    0.539 DampG=2.000 DampE=1.000 DampFc=2.0000 IDamp=-1.
 RMSDP=9.20D-05 MaxDP=2.40D-03              OVMax= 7.98D-03

 Cycle   2  Pass 0  IDiag  1:
 E= -398.031542196932     Delta-E=       -0.000411356022 Rises=F Damp=F
 DIIS: error= 5.16D-04 at cycle   2 NSaved=   2.
 NSaved= 2 IEnMin= 2 EnMin= -398.031542196932     IErMin= 2 ErrMin= 5.16D-04
 ErrMax= 5.16D-04  0.00D+00 EMaxC= 1.00D-01 BMatC= 1.33D-04 BMatP= 7.06D-04
 IDIUse=3 WtCom= 9.95D-01 WtEn= 5.16D-03
 Coeff-Com:  0.216D+00 0.784D+00
 Coeff-En:   0.000D+00 0.100D+01
 Coeff:      0.215D+00 0.785D+00
 Gap=     0.149 Goal=   None    Shift=    0.000
 RMSDP=5.76D-05 MaxDP=3.29D-03 DE=-4.11D-04 OVMax= 7.67D-03

 Cycle   3  Pass 0  IDiag  1:
 E= -398.031330956609     Delta-E=        0.000211240323 Rises=F Damp=F
 DIIS: error= 8.19D-04 at cycle   3 NSaved=   3.
 NSaved= 3 IEnMin= 2 EnMin= -398.031542196932     IErMin= 2 ErrMin= 5.16D-04
 ErrMax= 8.19D-04  0.00D+00 EMaxC= 1.00D-01 BMatC= 3.84D-04 BMatP= 1.33D-04
 IDIUse=3 WtCom= 2.59D-01 WtEn= 7.41D-01
 Coeff-Com:  0.430D-01 0.614D+00 0.343D+00
 Coeff-En:   0.000D+00 0.690D+00 0.310D+00
 Coeff:      0.111D-01 0.671D+00 0.318D+00
 Gap=     0.148 Goal=   None    Shift=    0.000
 RMSDP=3.39D-05 MaxDP=2.13D-03 DE= 2.11D-04 OVMax= 5.27D-03

 Cycle   4  Pass 0  IDiag  1:
 E= -398.031640513132     Delta-E=       -0.000309556523 Rises=F Damp=F
 DIIS: error= 1.76D-04 at cycle   4 NSaved=   4.
 NSaved= 4 IEnMin= 4 EnMin= -398.031640513132     IErMin= 4 ErrMin= 1.76D-04
 ErrMax= 1.76D-04  0.00D+00 EMaxC= 1.00D-01 BMatC= 1.20D-05 BMatP= 1.33D-04
 IDIUse=3 WtCom= 9.98D-01 WtEn= 1.76D-03
 Coeff-Com:  0.132D-01 0.364D+00 0.153D+00 0.470D+00
 Coeff-En:   0.000D+00 0.468D-01 0.000D+00 0.953D+00
 Coeff:      0.132D-01 0.363D+00 0.153D+00 0.471D+00
 Gap=     0.148 Goal=   None    Shift=    0.000
 RMSDP=8.64D-06 MaxDP=3.73D-04 DE=-3.10D-04 OVMax= 1.06D-03

 Initial convergence to 1.0D-05 achieved.  Increase integral accuracy.
[...]
    A9        2.07357   0.00001   0.00000   0.00009   0.00009   2.07367
   A10        2.14003  -0.00001   0.00000  -0.00008  -0.00008   2.13995
   A11        2.14616  -0.00000   0.00000   0.00002   0.00002   2.14617
   A12        2.02502  -0.00001   0.00000  -0.00012  -0.00012   2.02490
   A13        2.11201   0.00001   0.00000   0.00010   0.00010   2.11211
   A14        2.09313   0.00000   0.00000  -0.00001  -0.00001   2.09312
   A15        2.09106   0.00000   0.00000   0.00002   0.00002   2.09108
   A16        2.09899  -0.00000   0.00000  -0.00001  -0.00001   2.09898
   A17        2.05588   0.00000   0.00000   0.00001   0.00001   2.05588
   A18        2.10309   0.00000   0.00000   0.00004   0.00004   2.10314
   A19        2.12421  -0.00000   0.00000  -0.00005  -0.00005   2.12416
   A20        2.75486  -0.00003   0.00000  -0.00041  -0.00041   2.75446
   A21        2.12786  -0.00002   0.00000  -0.00025  -0.00025   2.12761
   A22        2.05914  -0.00007   0.00000  -0.00509  -0.00509   2.05405
   A23        1.88885  -0.00001   0.00000  -0.00045  -0.00045   1.88841
   A24        1.49940   0.00001   0.00000  -0.00020  -0.00020   1.49920
   A25        2.58602  -0.00001   0.00000  -0.00041  -0.00041   2.58561
    D1       -0.00043   0.00000   0.00000   0.00107   0.00107   0.00064
    D2       -3.14080   0.00001   0.00000   0.00112   0.00112  -3.13968
    D3        0.10064  -0.00001   0.00000  -0.00306  -0.00306   0.09759
    D4        0.00173  -0.00001   0.00000  -0.00135  -0.00135   0.00038
    D5       -3.13795  -0.00000   0.00000   0.00011   0.00011  -3.13784
    D6        0.00240  -0.00000   0.00000   0.00006   0.00006   0.00246
    D7       -0.00097  -0.00000   0.00000  -0.00031  -0.00031  -0.00128
    D8        3.13938  -0.00000   0.00000  -0.00036  -0.00036   3.13901
    D9       -0.00175   0.00000   0.00000  -0.00008  -0.00008  -0.00183
   D10        3.13758   0.00000   0.00000   0.00000   0.00000   3.13758
   D11       -3.13697   0.00000   0.00000   0.00051   0.00051  -3.13646
   D12        0.00236   0.00000   0.00000   0.00059   0.00059   0.00295
   D13        0.00132  -0.00000   0.00000  -0.00027  -0.00027   0.00106
   D14       -0.10174  -0.00002   0.00000  -0.00030  -0.00030  -0.10204
   D15        3.13716   0.00000   0.00000  -0.00079  -0.00079   3.13636
   D16        3.03410  -0.00002   0.00000  -0.00083  -0.00083   3.03327
   D17        3.13870   0.00000   0.00000  -0.00006  -0.00006   3.13863
   D18       -0.00061   0.00000   0.00000  -0.00002  -0.00002  -0.00064
   D19       -0.00164   0.00000   0.00000  -0.00001  -0.00001  -0.00165
   D20       -3.14095   0.00000   0.00000   0.00003   0.00003  -3.14092
   D21        0.00020   0.00000   0.00000  -0.00003  -0.00003   0.00018
   D22       -3.14005  -0.00000   0.00000  -0.00001  -0.00001  -3.14006
   D23        3.13942   0.00000   0.00000  -0.00007  -0.00007   3.13935
   D24       -0.00083  -0.00000   0.00000  -0.00005  -0.00005  -0.00088
   D25        0.00034   0.00000   0.00000   0.00004   0.00004   0.00038
   D26        3.14041   0.00000   0.00000   0.00004   0.00004   3.14045
   D27       -3.13888  -0.00000   0.00000  -0.00004  -0.00004  -3.13892
   D28        0.00119  -0.00000   0.00000  -0.00004  -0.00004   0.00115
   D29        0.00042  -0.00000   0.00000   0.00001   0.00001   0.00043
   D30       -3.13963  -0.00000   0.00000   0.00001   0.00001  -3.13961
   D31        3.14067   0.00000   0.00000  -0.00001  -0.00001   3.14066
   D32        0.00062   0.00000   0.00000  -0.00000  -0.00000   0.00061
   D33       -1.99587  -0.00001   0.00000   0.00267   0.00267  -1.99320
   D34       -0.00205   0.00000   0.00000   0.00107   0.00107  -0.00097
   D35        1.56915   0.00002   0.00000  -0.00138  -0.00137   1.56778
   D36        2.15374  -0.00004   0.00000  -0.00518  -0.00518   2.14856
         Item               Value     Threshold  Converged?
 Maximum Force            0.000065     0.000450     YES
 RMS     Force            0.000018     0.000300     YES
 Maximum Displacement     0.005811     0.001800     NO 
 RMS     Displacement     0.000918     0.001200     YES
 Predicted change in Energy=-3.230763D-07
 GradGradGradGradGradGradGradGradGradGradGradGradGradGradGradGradGradGrad

 Leave Link  103 at Fri Aug 27 00:02:52 2021, MaxMem= 17179869184 cpu:        26.8
 (Enter /public3/home/sc51754/softwares/g09e01/l9999.exe)
 1\1\GINC-S1512\Freq\RSVWN\Gen\C5H7N1O2\SC51754\27-Aug-2021\0\\#P Geom=
 AllCheck Guess=TCheck SCRF=Check GenChk RSVWN/ChkBas Freq\\HY_H2O_SVWN
 _PC2_OPT_FREQ\\0,1\O,1.2640419063,1.4110029555,-0.0076065488\N,0.34288
 23572,-0.6777089337,-0.0114093095\C,0.1928513968,0.6496567742,-0.00151
 96091\C,-1.0738870229,1.2379623454,0.0135744575\C,-0.7356346461,-1.456
 233931,-0.0095783577\C,-2.1765486215,0.4217333913,0.0161817342\C,-2.01
 72932236,-0.9588575,0.0041684898\H,2.0940915045,0.8008842633,-0.019465
 8146\H,-1.1479268496,2.3258089189,0.0206294629\H,-0.5495087083,-2.5342
 812666,-0.0219802928\H,-3.1768356451,0.8604236823,0.0264313504\H,-2.87
 26075563,-1.6341001579,0.0040399397\O,2.9038505826,-0.5146746787,-0.09
 39347256\H,3.4033472828,-0.786130806,0.6908298792\H,1.961664243,-0.919
 3130568,-0.0309186555\\Version=EM64L-G09RevE.01\State=1-A\HF=-398.0349
 772\RMSD=4.282e-09\RMSF=3.422e-05\ZeroPoint=0.1157861\Thermal=0.123174
 1\Dipole=-0.6973596,-0.5401415,0.5469414\DipoleDeriv=-1.6615666,-0.386
 4341,-0.001549,-0.2785044,-0.7050683,0.0021221,-0.0042496,0.0060864,-0
 .3138332,-0.9744266,0.1064148,0.0009947,-0.3923604,-0.5472187,0.000228
 2,-0.0186117,0.0025051,-0.2000448,1.4807865,0.6908902,-0.0055968,0.593
 0612,0.5941809,-0.0028687,-0.0101956,-0.0045373,0.1766986,-0.5323231,-
 0.3517763,-0.0008389,0.1254987,0.0024078,0.0002141,0.009189,0.0005758,
 -0.1491397,0.486413,-0.2081499,-0.0043954,0.2417205,0.2827979,0.007612
 9,-0.0013171,0.0074301,-0.033332,0.2034309,0.092118,-0.0016407,0.05441
 45,0.3672998,0.0029837,-0.0023597,0.0026209,-0.1023352,-0.2396408,0.25
 82627,0.0014154,0.0330876,-0.3541111,-0.0022922,0.0056873,-0.003145,-0
 .1571829,0.9323408,-0.2622089,-0.0006322,-0.5786705,0.4952121,-0.01101
 33,-0.0053739,-0.013559,0.2356095,0.0764248,-0.0025981,0.000196,0.0057
 552,-0.0051725,-0.0011247,0.0010718,-0.0007196,0.1490583,0.067892,0.02
 20753,-0.0001239,-0.0256243,-0.0664943,-0.0014144,-0.002438,-0.0016552
 ,0.1156458,-0.0208643,0.0515003,0.0013562,0.0530018,0.071782,-0.000871
 6,0.0001446,-0.0005317,0.1286611,0.0062938,-0.0574844,0.0001814,-0.055
 8842,0.0255141,-0.0004585,0.0002308,-0.0006671,0.1539553,-1.4767554,0.
 1685245,-0.0074472,0.1655896,-0.6254768,-0.0860392,0.0595458,-0.075580
 5,-0.3775357,0.3276234,-0.0167974,0.0013343,0.0047034,0.2760139,0.0523
 049,-0.029291,0.0436938,0.2035271,1.3243716,-0.1043366,0.0167463,0.054
 2113,0.1883332,0.0406166,-0.0020328,0.0374833,0.1702479\Polar=103.9286
 559,2.608766,86.4660044,0.9632726,-0.0704481,44.9870845\PG=C01 [X(C5H7
 N1O2)]\NImag=0\\0.55018898,0.02731894,0.39365367,-0.00531614,0.0011840
 2,0.04605242,0.01631871,-0.05122643,-0.00003064,0.51219315,-0.02842377
 ,-0.05966048,-0.00036340,0.13710228,0.63170727,0.00028252,0.00000059,0
 .00895171,-0.00155309,0.00313295,0.09100743,-0.28788700,-0.10719628,0.
 00211254,-0.14931901,0.02530800,0.00018385,0.77453914,-0.12944974,-0.1
 8669037,0.00117794,0.04449673,-0.30423483,-0.00205437,0.02326343,0.683
 01266,0.00129334,0.00017029,-0.05555895,0.00087743,-0.00170043,-0.0698
 9328,-0.00488674,0.00297904,0.18589769,-0.06808701,0.00612108,0.000628
 70,0.02422297,0.06676504,0.00062554,-0.25610470,0.05495264,0.00181240,
 0.68246564,-0.03000156,0.01731386,0.00029118,0.03242162,-0.02939005,-0
 .00058351,0.10845597,-0.15597004,-0.00150853,0.03670749,0.74127054,0.0
 0071684,0.00027634,0.01048146,-0.00010831,-0.00084370,0.01715736,0.002
 33433,-0.00134691,-0.07452582,-0.00434241,0.00380452,0.11565201,-0.009
 80059,0.00891786,0.00012662,-0.28023529,-0.11450120,0.00104271,0.04121
 129,-0.07089407,-0.00088394,-0.05696487,-0.00179057,0.00038726,0.69418
 629,-0.00013541,0.00023059,-0.00012516,-0.12816801,-0.20276300,-0.0001
 6205,-0.02656840,-0.06624926,-0.00014855,-0.00906963,0.00060446,0.0001
 1456,-0.01960052,0.73862959,0.00011482,-0.00006729,0.00955537,0.000574
 55,-0.00039375,-0.05898829,-0.00059404,0.00005057,-0.00272643,0.000307
 62,0.00010548,-0.00485330,-0.00426838,0.00555607,0.14675686,0.00283343
 ,0.00306115,0.00002583,-0.00688202,-0.01901056,-0.00025536,-0.05272886
 ,0.00272151,0.00050572,-0.29356400,-0.15019620,0.00078437,0.01450962,0
 .03551811,0.00028723,0.72837967,0.01659984,-0.00577562,-0.00012832,-0.
 02955832,-0.05109318,-0.00015402,-0.03722602,0.06183220,0.00075259,-0.
 10294065,-0.21338324,-0.00023996,0.07728479,-0.01572574,-0.00079014,-0
 .00529941,0.67687109,0.00009808,-0.00008724,0.00421976,-0.00014888,-0.
 00017958,-0.00763167,0.00013370,0.00044285,0.00241093,0.00104553,0.000
 03291,-0.05454604,0.00054974,-0.00044827,0.00877889,-0.00442411,0.0040
 4197,0.13504001,0.00362907,-0.00598800,-0.00004092,-0.06968124,-0.0461
 2266,0.00029200,-0.02481783,0.04179104,0.00039565,0.03706471,-0.025233
 59,-0.00039608,-0.32060979,0.11319425,0.00282914,-0.12037983,0.0000572
 9,0.00039848,0.71910345,-0.01185738,0.00103688,0.00006658,0.00188103,0
 .04968530,0.00032262,0.03000294,-0.03553244,-0.00048185,-0.05471484,-0
 .03687268,0.00008585,0.05998678,-0.15771641,-0.00133336,0.05214093,-0.
 33407377,-0.00250514,0.03372339,0.68551040,-0.00012487,0.00009221,-0.0
 0140789,0.00047877,0.00054266,0.02098591,0.00038901,-0.00057070,-0.009
 08995,-0.00062576,-0.00020881,0.00764908,0.00234676,-0.00163121,-0.064
 90814,0.00081026,-0.00221255,-0.05992457,-0.00397919,0.00457208,0.1148
 6154,-0.17389757,0.09798247,0.00186020,-0.00344820,0.01185452,-0.00041
 000,-0.05862409,-0.00546200,0.00053087,0.00631716,-0.00104172,-0.00004
 015,0.00090758,0.00137499,0.00001311,-0.00173971,-0.00223394,0.0000296
 3,-0.00001572,0.00261036,0.00007783,0.22069057,0.11525721,-0.14021738,
 -0.00209967,0.00554813,-0.00616118,0.00032186,-0.00652379,0.03238486,0
 .00028269,-0.01084459,-0.00461324,0.00007027,-0.00228657,-0.00255184,-
 0.00004925,0.00079659,0.00457470,0.00000087,0.00147898,-0.00311238,-0.
 00006531,-0.08112767,0.12736958,0.00375393,-0.00290287,-0.02552887,-0.
 00023058,0.00009471,-0.00259722,-0.00012992,-0.00018828,0.00005788,0.0
 0011149,-0.00000304,0.00415478,-0.00000594,0.00001122,-0.00076568,-0.0
 0001391,-0.00002858,0.00131775,-0.00002164,-0.00000082,0.00042492,-0.0
 0193596,0.00460534,0.03712862,0.00238311,-0.00128191,-0.00003721,-0.00
 574744,0.00448948,0.00009669,0.00410505,0.02663442,0.00014402,-0.05387
 531,0.02154152,0.00032936,-0.00188486,-0.00117060,0.00000128,0.0060646
 6,-0.02453001,-0.00018277,-0.00334161,-0.00267838,0.00007352,-0.000541
 80,0.00041096,-0.00002287,0.05060233,-0.00089996,0.00081033,0.00002664
 ,0.00266366,-0.00020007,-0.00005583,-0.00302773,-0.01000971,-0.0000368
 1,0.02322185,-0.32678612,-0.00197688,0.00065298,0.00103059,0.00001009,
 0.00276739,-0.01168141,-0.00010148,-0.00323925,0.00118250,-0.00000929,
 0.00034648,-0.00024865,0.00000754,-0.02249994,0.34547730,-0.00004365,0
 .00000316,-0.00198747,0.00012029,-0.00008821,0.00515702,-0.00004385,-0
 .00027262,0.00251706,0.00033463,-0.00186635,-0.03156094,0.00003157,0.0
 0002498,-0.00041630,-0.00002128,0.00006396,0.00160790,0.00005387,-0.00
 004017,0.00845772,-0.00000710,0.00000428,-0.00063636,-0.00036049,0.002
 12287,0.02233119,-0.00054416,-0.00107525,-0.00000215,0.00156519,-0.031
 42602,-0.00033979,-0.00204116,-0.00341941,0.00007084,-0.00070822,-0.00
 068674,-0.00000222,-0.06241709,0.05563225,0.00070220,-0.00516322,0.001
 61175,0.00010012,0.00045115,0.02645729,0.00029437,0.00055459,-0.000355
 75,0.00000087,0.00013336,-0.00000191,-0.00001467,0.06739146,-0.0001931
 6,-0.00101353,-0.00000128,-0.00713732,-0.02031623,-0.00011886,-0.00189
 403,0.00193883,-0.00010587,0.00006538,0.00046033,0.00001335,0.05417327
 ,-0.30406256,-0.00305724,0.00231463,0.00073994,-0.00008946,-0.00024505
 ,-0.00651333,-0.00012591,0.00028236,-0.00001850,-0.00000216,0.00009243
 ,-0.00010706,0.00001613,-0.04755644,0.32905724,0.00001079,-0.00000758,
 0.00026780,0.00001101,0.00018964,-0.00288118,0.00008704,-0.00002218,0.
 00943814,0.00001214,0.00002540,-0.00072233,0.00066016,-0.00328843,-0.0
 3784543,0.00008492,-0.00005785,0.00696286,0.00005307,-0.00027127,0.006
 43447,-0.00002996,0.00001649,-0.00017571,-0.00001569,0.00000779,-0.001
 60302,-0.00074177,0.00342093,0.02420985,-0.00159304,0.00067741,0.00001
 534,0.00026890,-0.00065186,-0.00002536,-0.00099457,-0.00354695,0.00004
 289,-0.01784913,0.01100450,0.00023604,0.00176437,0.00060637,0.00003483
 ,-0.27920078,0.09909977,0.00243016,0.00055138,-0.00060211,0.00001823,0
 .00013522,-0.00047191,-0.00000332,0.00110682,0.00000597,-0.00004026,-0
 .00007852,-0.00014587,-0.00000338,0.29547905,-0.00086349,0.00051185,0.
 00001276,-0.00089295,-0.00040407,0.00001970,-0.00329724,-0.00146670,-0
 .00004880,-0.01708230,0.01028083,0.00015382,0.00004744,-0.00598031,-0.
 00010128,0.09964814,-0.09684134,-0.00112261,0.02755183,-0.00675513,-0.
 00027505,-0.00010761,-0.00021763,0.00000532,0.00046512,0.00077122,0.00
 003291,0.00137717,-0.00039433,-0.00000755,-0.10635180,0.09922473,-0.00
 001082,-0.00002936,-0.00049406,0.00000237,0.00002526,-0.00292121,0.000
 06150,-0.00003016,0.00974467,0.00006637,-0.00000529,0.00484342,0.00004
 633,-0.00011975,0.00686691,0.00236996,-0.00111513,-0.03859705,0.000242
 88,-0.00008401,0.00442251,-0.00001161,0.00000466,-0.00045792,-0.000041
 54,0.00002471,-0.00445278,0.00000630,0.00000092,-0.00037984,-0.0026882
 2,0.00128895,0.02472059,0.00052738,-0.00027587,-0.00000845,-0.00478051
 ,0.00260156,0.00012000,-0.00049245,0.00176761,0.00001047,0.00130398,0.
 00152296,0.00003582,-0.01527451,-0.02018375,-0.00009799,0.00690715,0.0
 0458858,-0.00000480,-0.22385101,-0.13432751,0.00016529,-0.00010010,0.0
 0033238,-0.00000459,0.00022814,0.00035761,0.00000317,0.00070772,0.0001
 4405,-0.00002130,0.00053039,-0.00044049,-0.00002485,0.23412932,-0.0002
 5927,0.00045152,0.00001246,0.00333645,0.00064841,-0.00009235,0.0012567
 6,-0.00137590,-0.00001592,0.00198385,-0.00445288,-0.00010265,0.0097703
 5,0.00996278,0.00003353,-0.02385553,-0.01298322,0.00004379,-0.13507443
 ,-0.15773102,-0.00020572,0.00006196,-0.00014488,0.00000260,-0.00111804
 ,-0.00044084,0.00000120,-0.00052711,0.00036792,0.00003552,0.00017043,0
 .00118383,0.00003658,0.14431279,0.16432264,-0.00001474,-0.00000919,-0.
 00121806,0.00012523,-0.00008717,0.00786273,0.00000896,-0.00000423,0.00
 017088,0.00004913,-0.00008842,0.00598365,0.00018166,0.00024205,-0.0009
 2850,-0.00022948,-0.00011535,0.00054210,0.00011757,-0.00027016,-0.0289
 3031,0.00000437,-0.00000596,-0.00002357,-0.00000888,-0.00000841,0.0005
 5570,-0.00003260,0.00004189,-0.00328735,-0.00002308,0.00003979,-0.0032
 0305,-0.00017614,0.00025325,0.02232369,-0.01307610,0.02262029,0.000589
 40,-0.04174860,-0.00564510,-0.00106806,-0.00188187,-0.00422629,0.00018
 563,-0.00021841,0.00135811,0.00016558,-0.00108356,0.00955260,0.0000664
 6,-0.00042334,-0.00073590,-0.00003817,-0.00337235,-0.00119285,0.000189
 49,-0.00924406,-0.00612242,-0.00105113,-0.00048379,0.00027873,0.000000
 10,-0.00037081,-0.00096425,-0.00009736,-0.00016138,0.00001390,-0.00002
 310,-0.00088256,0.00023339,0.00001963,0.45842555,0.04418056,-0.0179605
 9,0.00250476,-0.00981951,0.01219150,-0.00130332,-0.01803931,-0.0177186
 1,0.00004115,0.00593200,0.00342316,-0.00025830,0.00194149,0.00225980,-
 0.00003581,-0.00073585,-0.00277668,-0.00003738,-0.00126009,0.00193058,
 0.00012231,-0.02158802,0.00641856,-0.00939545,-0.00085976,0.00036389,-
 0.00000556,0.00039745,-0.00008163,-0.00004396,0.00021018,0.00011379,0.
 00003556,-0.00023329,0.00014756,0.00002185,0.03248202,0.14489156,-0.00
 349538,0.00403344,0.00855529,-0.00263093,-0.00027633,0.00998821,0.0007
 3700,-0.00034267,-0.00068025,-0.00007622,-0.00000729,-0.00120878,-0.00
 000019,-0.00004626,0.00033675,0.00002186,-0.00006763,0.00013195,-0.000
 04139,0.00006046,-0.00096899,0.00156504,-0.00564302,-0.01672899,0.0000
 2501,-0.00000974,0.00007230,0.00003816,-0.00001570,0.00037564,0.000006
 67,0.00000516,0.00015855,-0.00001965,-0.00001554,-0.00010069,0.1869228
 3,-0.13736157,0.37616245,0.00147272,0.00074101,0.00082315,-0.00327843,
 -0.00128324,0.00301501,-0.00077695,-0.00078442,-0.00041189,0.00018579,
 0.00006681,-0.00034467,-0.00070688,0.00042796,0.00002813,0.00001850,-0
 .00008402,0.00005235,-0.00006982,-0.00015519,-0.00029614,-0.00269440,0
 .00078642,-0.00150372,0.00001218,0.00002702,0.00000564,-0.00006774,-0.
 00006783,0.00012076,0.00001581,-0.00000017,0.00005033,-0.00004825,0.00
 001835,-0.00002016,-0.15046812,0.04872889,-0.18520431,0.16618782,0.004
 13922,-0.00408442,-0.00247149,-0.00240899,0.00039004,0.00090676,-0.000
 52052,-0.00102024,0.00000587,0.00023751,0.00013417,0.00018084,0.000053
 80,0.00054408,-0.00001198,-0.00000675,-0.00007369,0.00001488,-0.000162
 48,-0.00005936,-0.00004078,-0.00114767,0.00492752,0.00739557,-0.000040
 83,0.00002427,0.00000666,-0.00007280,-0.00009228,-0.00001135,0.0000177
 2,0.00000053,-0.00002908,-0.00004789,0.00001135,-0.00000445,0.06672916
 ,-0.05811828,0.12320226,-0.06210884,0.05331369,0.00390080,-0.00329581,
 -0.00018635,0.00219183,0.00006863,0.00002590,-0.00086016,-0.00029635,0
 .00000961,0.00019257,0.00002418,-0.00002232,0.00001834,-0.00011844,-0.
 00000032,0.00001196,-0.00001535,-0.00000912,0.00011246,0.00003070,-0.0
 0001719,-0.00267987,0.00439675,0.00042653,0.00000025,0.00000653,0.0000
 0995,-0.00002748,0.00003877,0.00003297,0.00000905,-0.00000318,0.000011
 37,0.00003404,0.00000982,0.00000849,-0.21855998,0.11331605,-0.33391791
 ,0.21318879,-0.11517835,0.33456442,-0.02246795,-0.00039647,-0.00074629
 ,0.01055183,-0.00105645,-0.00200667,0.01581300,0.02215549,0.00031331,-
 0.00418860,-0.00412862,0.00024423,-0.00360171,-0.01141020,0.00000101,0
 .00136872,0.00336624,-0.00003906,0.00533945,-0.00127446,0.00018245,0.0
 2170055,-0.01687795,0.00105730,0.00123917,-0.00065291,-0.00001798,0.00
 058746,0.00113183,-0.00013044,0.00002549,-0.00006756,-0.00004590,0.001
 09530,-0.00030993,-0.00000147,-0.23501059,-0.08133675,0.00215149,-0.00
 978225,-0.00466066,0.00246740,0.21733011,-0.00541202,0.00139369,-0.000
 08702,0.00176163,-0.02039945,-0.00018019,0.01600623,0.00109957,-0.0001
 8487,-0.00133485,-0.00201908,0.00006886,-0.00375584,0.00178723,0.00008
 438,0.00013586,0.00038996,-0.00000610,-0.00047122,-0.00097913,0.000016
 07,-0.00180451,-0.01838955,0.00039888,0.00054556,-0.00018624,-0.000003
 25,-0.00035449,0.00003521,0.00001441,-0.00002186,-0.00002727,-0.000003
 85,-0.00011876,0.00003272,-0.00000549,-0.11438139,-0.07508461,0.016484
 43,0.01368724,0.00410263,0.00101604,0.09551840,0.10824432,-0.00116554,
 0.00063930,-0.00170216,0.00032095,-0.00012128,-0.01622343,0.00046676,0
 .00047807,0.00222782,-0.00014173,-0.00001243,0.00151777,-0.00023270,0.
 00013924,-0.00086238,0.00004201,0.00006637,-0.00030369,-0.00001589,-0.
 00015152,0.00201089,0.00103360,-0.00184001,0.00340385,-0.00000067,-0.0
 0000772,-0.00005198,-0.00005219,-0.00001550,-0.00082687,-0.00000958,0.
 00000005,-0.00026212,-0.00001101,0.00000342,0.00024428,0.03269867,0.03
 239967,-0.04217554,-0.02950328,-0.01396536,-0.00093603,-0.00342940,-0.
 01761230,0.05393958\\-0.00004734,0.00000413,-0.00000947,-0.00007648,-0
 .00002987,-0.00000368,0.00008124,0.00002191,-0.00000688,-0.00001985,-0
 .00003762,0.00000463,0.00006920,0.00005377,0.00000687,0.00004082,-0.00
 003097,0.00000059,0.00000013,0.00004705,-0.00000139,-0.00005569,-0.000
 07353,-0.00001650,0.00000960,0.00002292,0.00000051,-0.00000704,-0.0000
 2081,-0.00000288,-0.00001774,0.00001126,-0.00000196,-0.00001344,-0.000
 01231,-0.00000227,0.00003131,0.00005130,0.00003323,0.00002613,-0.00005
 625,-0.00000177,-0.00002086,0.00004903,0.00000096\\\@


 Cherishing children is the mark of a civilized society.
 -- Joan Ganz Cooney
 Job cpu time:       0 days  0 hours 48 minutes 36.9 seconds.
 File lengths (MBytes):  RWF=    137 Int=      0 D2E=      0 Chk=      9 Scr=      1
 Normal termination of Gaussian 09 at Fri Aug 27 00:02:52 2021.
