 Entering Gaussian System, Link 0=g09
 AtFile(1): pc-2.gbs
            -H     0
            S    4   1.00
                  0.754230D+02           0.240650D-02
                  0.113500D+02           0.184870D-01
                  0.259930D+01           0.897420D-01
                  0.735130D+00           0.281110D+00
            S    1   1.00
                  0.231670D+00           0.100000D+01
            S    1   1.00
                  0.741470D-01           0.100000D+01
            P    1   1.00
                  0.160000D+01           0.100000D+01
            P    1   1.00
                  0.450000D+00           0.100000D+01
            D    1   1.00
                  0.125000D+01           0.100000D+01
            ****
            -C     0
            S    7   1.00
                  0.785710D+04           0.568250D-03
                  0.117870D+04           0.439150D-02
                  0.268320D+03           0.225040D-01
                  0.759480D+02           0.866530D-01
                  0.245590D+02           0.244050D+00
                  0.862120D+01           0.441480D+00
                  0.312780D+01           0.353320D+00
            S    7   1.00
                  0.117870D+04          -0.594920D-06
                  0.268320D+03          -0.627480D-04
                  0.759480D+02          -0.757730D-03
                  0.245590D+02          -0.733080D-02
                  0.862120D+01          -0.389320D-01
                  0.312780D+01          -0.889080D-01
                  0.822020D+00           0.216890D+00
            S    1   1.00
                  0.330170D+00           0.100000D+01
            S    1   1.00
                  0.114630D+00           0.100000D+01
            P    4   1.00
                  0.337750D+02           0.602940D-02
                  0.767660D+01           0.432280D-01
                  0.223570D+01           0.163010D+00
                  0.764470D+00           0.365040D+00
            P    1   1.00
                  0.262320D+00           0.100000D+01
            P    1   1.00
                  0.846380D-01           0.100000D+01
            D    1   1.00
                  0.140000D+01           0.100000D+01
            D    1   1.00
                  0.450000D+00           0.100000D+01
            F    1   1.00
                  0.950000D+00           0.100000D+01
            ****
            -N     0
            S    7   1.00
                  0.111010D+05           0.545700D-03
                  0.166530D+04           0.421810D-02
                  0.379080D+03           0.216450D-01
                  0.107300D+03           0.837760D-01
                  0.347470D+02           0.238810D+00
                  0.122490D+02           0.439940D+00
                  0.447430D+01           0.363640D+00
            S    7   1.00
                  0.166530D+04          -0.150060D-05
                  0.379080D+03          -0.587530D-04
                  0.107300D+03          -0.774530D-03
                  0.347470D+02          -0.721610D-02
                  0.122490D+02          -0.393380D-01
                  0.447430D+01          -0.906110D-01
                  0.124040D+01           0.198820D+00
            S    1   1.00
                  0.487430D+00           0.100000D+01
            S    1   1.00
                  0.164840D+00           0.100000D+01
            P    4   1.00
                  0.479340D+02           0.617060D-02
                  0.109990D+02           0.442600D-01
                  0.324720D+01           0.168250D+00
                  0.111140D+01           0.368480D+00
            P    1   1.00
                  0.379880D+00           0.100000D+01
            P    1   1.00
                  0.120680D+00           0.100000D+01
            D    1   1.00
                  0.180000D+01           0.100000D+01
            D    1   1.00
                  0.550000D+00           0.100000D+01
            F    1   1.00
                  0.102000D+01           0.100000D+01
            ****
            -O     0
            S    7   1.00
                  0.147820D+05           0.535190D-03
                  0.221730D+04           0.413750D-02
                  0.504740D+03           0.212450D-01
                  0.142870D+03           0.824530D-01
                  0.463000D+02           0.236710D+00
                  0.163370D+02           0.440390D+00
                  0.598280D+01           0.364650D+00
            S    7   1.00
                  0.221730D+04          -0.192750D-05
                  0.504740D+03          -0.579640D-04
                  0.142870D+03          -0.794940D-03
                  0.463000D+02          -0.731250D-02
                  0.163370D+02          -0.405740D-01
                  0.598280D+01          -0.915940D-01
                  0.167180D+01           0.209400D+00
            S    1   1.00
                  0.646620D+00           0.100000D+01
            S    1   1.00
                  0.216690D+00           0.100000D+01
            P    4   1.00
                  0.604240D+02           0.689490D-02
                  0.139350D+02           0.490050D-01
                  0.415310D+01           0.182550D+00
                  0.141580D+01           0.376330D+00
            P    1   1.00
                  0.475490D+00           0.100000D+01
            P    1   1.00
                  0.145290D+00           0.100000D+01
            D    1   1.00
                  0.220000D+01           0.100000D+01
            D    1   1.00
                  0.650000D+00           0.100000D+01
            F    1   1.00
                  0.110000D+01           0.100000D+01
            ****
 Initial command:
 /public3/home/sc51754/softwares/g09e01/l1.exe "./Gau-11227.inp" -scrdir="./"
 Entering Link 1 = /public3/home/sc51754/softwares/g09e01/l1.exe PID=     11228.
  
 Copyright (c) 1988,1990,1992,1993,1995,1998,2003,2009,2015,
            Gaussian, Inc.  All Rights Reserved.
  
 This is part of the Gaussian(R) 09 program.  It is based on
 the Gaussian(R) 03 system (copyright 2003, Gaussian, Inc.),
 the Gaussian(R) 98 system (copyright 1998, Gaussian, Inc.),
 the Gaussian(R) 94 system (copyright 1995, Gaussian, Inc.),
 the Gaussian 92(TM) system (copyright 1992, Gaussian, Inc.),
 the Gaussian 90(TM) system (copyright 1990, Gaussian, Inc.),
 the Gaussian 88(TM) system (copyright 1988, Gaussian, Inc.),
 the Gaussian 86(TM) system (copyright 1986, Carnegie Mellon
 University), and the Gaussian 82(TM) system (copyright 1983,
 Carnegie Mellon University). Gaussian is a federally registered
 trademark of Gaussian, Inc.
  
 This software contains proprietary and confidential information,
 including trade secrets, belonging to Gaussian, Inc.
  
 This software is provided under written license and may be
 used, copied, transmitted, or stored only in accord with that
 written license.
  
 The following legend is applicable only to US Government
 contracts under FAR:
  
                    RESTRICTED RIGHTS LEGEND
  
 Use, reproduction and disclosure by the US Government is
 subject to restrictions as set forth in subparagraphs (a)
 and (c) of the Commercial Computer Software - Restricted
 Rights clause in FAR 52.227-19.
  
 Gaussian, Inc.
 340 Quinnipiac St., Bldg. 40, Wallingford CT 06492
  
  
 ---------------------------------------------------------------
 Warning -- This program may not be used in any manner that
 competes with the business of Gaussian, Inc. or will provide
 assistance to any competitor of Gaussian, Inc.  The licensee
 of this program is prohibited from giving any competitor of
 Gaussian, Inc. access to this program.  By using this program,
 the user acknowledges that Gaussian, Inc. is engaged in the
 business of creating and licensing software in the field of
 computational chemistry and represents and warrants to the
 licensee that it is not a competitor of Gaussian, Inc. and that
 it will not use this program in any manner prohibited above.
 ---------------------------------------------------------------
  

 Cite this work as:
 Gaussian 09, Revision E.01,
 M. J. Frisch, G. W. Trucks, H. B. Schlegel, G. E. Scuseria, 
 M. A. Robb, J. R. Cheeseman, G. Scalmani, V. Barone, B. Mennucci, 
 G. A. Petersson, H. Nakatsuji, M. Caricato, X. Li, H. P. Hratchian, 
 A. F. Izmaylov, J. Bloino, G. Zheng, J. L. Sonnenberg, M. Hada, 
 M. Ehara, K. Toyota, R. Fukuda, J. Hasegawa, M. Ishida, T. Nakajima, 
 Y. Honda, O. Kitao, H. Nakai, T. Vreven, J. A. Montgomery, Jr., 
 J. E. Peralta, F. Ogliaro, M. Bearpark, J. J. Heyd, E. Brothers, 
 K. N. Kudin, V. N. Staroverov, T. Keith, R. Kobayashi, J. Normand, 
 K. Raghavachari, A. Rendell, J. C. Burant, S. S. Iyengar, J. Tomasi, 
 M. Cossi, N. Rega, J. M. Millam, M. Klene, J. E. Knox, J. B. Cross, 
 V. Bakken, C. Adamo, J. Jaramillo, R. Gomperts, R. E. Stratmann, 
 O. Yazyev, A. J. Austin, R. Cammi, C. Pomelli, J. W. Ochterski, 
 R. L. Martin, K. Morokuma, V. G. Zakrzewski, G. A. Voth, 
 P. Salvador, J. J. Dannenberg, S. Dapprich, A. D. Daniels, 
 O. Farkas, J. B. Foresman, J. V. Ortiz, J. Cioslowski, 
 and D. J. Fox, Gaussian, Inc., Wallingford CT, 2013.
 
 ******************************************
 Gaussian 09:  EM64L-G09RevE.01 30-Nov-2015
                26-Aug-2021 
 ******************************************
 %nprocshared=64
 Will use up to   64 processors via shared memory.
 %mem=128GB
 %chk=PY_H2O_SVWN_PC2_OPT_FREQ.chk
 --------------------
 #p opt freq SVWN/gen
 --------------------
 1/14=-1,18=20,19=15,26=3,38=1/1,3;
 2/9=110,12=2,17=6,18=5,40=1/2;
 3/5=7,11=2,16=1,25=1,30=1,71=1,74=205/1,2,3;
 4//1;
 5/5=2,38=5/2;
 6/7=2,8=2,9=2,10=2,28=1/1;
 7//1,2,3,16;
 1/14=-1,18=20,19=15,26=3/3(2);
 2/9=110/2;
 99//99;
 2/9=110/2;
 3/5=7,6=1,11=2,16=1,25=1,30=1,71=1,74=205,82=7/1,2,3;
 4/5=5,16=3,69=1/1;
 5/5=2,38=5/2;
 7//1,2,3,16;
 1/14=-1,18=20,19=15,26=3/3(-5);
 2/9=110/2;
 6/7=2,8=2,9=2,10=2,19=2,28=1/1;
 99/9=1/99;
 Leave Link    1 at Thu Aug 26 23:57:00 2021, MaxMem= 17179869184 cpu:         8.0
 (Enter /public3/home/sc51754/softwares/g09e01/l101.exe)
 ------------------------
 PY_H2O_SVWN_PC2_OPT_FREQ
 ------------------------
 Symbolic Z-matrix:
 Charge =  0 Multiplicity = 1
 O                     1.26148   1.38785   0.00541 
 N                     0.24943  -0.65888   0.01158 
 C                     0.21021   0.736     0.00592 
 C                    -1.11959   1.28763   0.00047 
 C                    -0.84358  -1.46082   0.0067 
 C                    -2.21816   0.48191  -0.00352 
 C                    -2.09559  -0.93059  -0.00106 
 H                     2.7014    0.27314  -0.04162 
 H                    -1.19683   2.36437  -0.00254 
 H                    -0.64999  -2.52343   0.00862 
 H                    -3.20534   0.92605  -0.00928 
 H                    -2.96087  -1.57362  -0.00584 
 O                     3.10667  -0.61979  -0.08598 
 H                     3.83344  -0.62425   0.54074 
 H                     1.18728  -1.05929   0.02234 
 
 Add virtual bond connecting atoms H8         and O1         Dist= 3.44D+00.
 Add virtual bond connecting atoms O13        and H15        Dist= 3.73D+00.
 NAtoms=     15 NQM=       15 NQMF=       0 NMMI=      0 NMMIF=      0
                NMic=       0 NMicF=      0.
                    Isotopes and Nuclear Properties:
 (Nuclear quadrupole moments (NQMom) in fm**2, nuclear magnetic moments (NMagM)
  in nuclear magnetons)

  Atom         1           2           3           4           5           6           7           8           9          10
 IAtWgt=          16          14          12          12          12          12          12           1           1           1
 AtmWgt=  15.9949146  14.0030740  12.0000000  12.0000000  12.0000000  12.0000000  12.0000000   1.0078250   1.0078250   1.0078250
 NucSpn=           0           2           0           0           0           0           0           1           1           1
 AtZEff=   0.0000000   0.0000000   0.0000000   0.0000000   0.0000000   0.0000000   0.0000000   0.0000000   0.0000000   0.0000000
 NQMom=    0.0000000   2.0440000   0.0000000   0.0000000   0.0000000   0.0000000   0.0000000   0.0000000   0.0000000   0.0000000
 NMagM=    0.0000000   0.4037610   0.0000000   0.0000000   0.0000000   0.0000000   0.0000000   2.7928460   2.7928460   2.7928460
 AtZNuc=   8.0000000   7.0000000   6.0000000   6.0000000   6.0000000   6.0000000   6.0000000   1.0000000   1.0000000   1.0000000

  Atom        11          12          13          14          15
 IAtWgt=           1           1          16           1           1
 AtmWgt=   1.0078250   1.0078250  15.9949146   1.0078250   1.0078250
 NucSpn=           1           1           0           1           1
 AtZEff=   0.0000000   0.0000000   0.0000000   0.0000000   0.0000000
 NQMom=    0.0000000   0.0000000   0.0000000   0.0000000   0.0000000
 NMagM=    2.7928460   2.7928460   0.0000000   2.7928460   2.7928460
 AtZNuc=   1.0000000   1.0000000   8.0000000   1.0000000   1.0000000
 Leave Link  101 at Thu Aug 26 23:57:01 2021, MaxMem= 17179869184 cpu:        14.8
 (Enter /public3/home/sc51754/softwares/g09e01/l103.exe)

 GradGradGradGradGradGradGradGradGradGradGradGradGradGradGradGradGradGrad
 Berny optimization.
 Initialization pass.
                           ----------------------------
                           !    Initial Parameters    !
                           ! (Angstroms and Degrees)  !
 --------------------------                            --------------------------
 ! Name  Definition              Value          Derivative Info.                !
 --------------------------------------------------------------------------------
 ! R1    R(1,3)                  1.237          estimate D2E/DX2                !
 ! R2    R(1,8)                  1.8216         estimate D2E/DX2                !
 ! R3    R(2,3)                  1.3954         estimate D2E/DX2                !
 ! R4    R(2,5)                  1.3556         estimate D2E/DX2                !
 ! R5    R(2,15)                 1.0198         estimate D2E/DX2                !
 ! R6    R(3,4)                  1.4397         estimate D2E/DX2                !
 ! R7    R(4,6)                  1.3624         estimate D2E/DX2                !
 ! R8    R(4,9)                  1.0795         estimate D2E/DX2                !
 ! R9    R(5,7)                  1.3597         estimate D2E/DX2                !
 ! R10   R(5,10)                 1.0801         estimate D2E/DX2                !
 ! R11   R(6,7)                  1.4178         estimate D2E/DX2                !
 ! R12   R(6,11)                 1.0825         estimate D2E/DX2                !
 ! R13   R(7,12)                 1.0781         estimate D2E/DX2                !
 ! R14   R(8,13)                 0.9816         estimate D2E/DX2                !
 ! R15   R(13,14)                0.9597         estimate D2E/DX2                !
 ! R16   R(13,15)                1.972          estimate D2E/DX2                !
 ! A1    A(3,1,8)              110.4468         estimate D2E/DX2                !
 ! A2    A(3,2,5)              124.6558         estimate D2E/DX2                !
 ! A3    A(3,2,15)             114.7312         estimate D2E/DX2                !
 ! A4    A(5,2,15)             120.6129         estimate D2E/DX2                !
 ! A5    A(1,3,2)              120.1911         estimate D2E/DX2                !
 ! A6    A(1,3,4)              125.6683         estimate D2E/DX2                !
 ! A7    A(2,3,4)              114.1406         estimate D2E/DX2                !
 ! A8    A(3,4,6)              121.2133         estimate D2E/DX2                !
 ! A9    A(3,4,9)              116.6328         estimate D2E/DX2                !
 ! A10   A(6,4,9)              122.1537         estimate D2E/DX2                !
 ! A11   A(2,5,7)              120.7801         estimate D2E/DX2                !
 ! A12   A(2,5,10)             115.9423         estimate D2E/DX2                !
 ! A13   A(7,5,10)             123.2776         estimate D2E/DX2                !
 ! A14   A(4,6,7)              121.2972         estimate D2E/DX2                !
 ! A15   A(4,6,11)             119.5197         estimate D2E/DX2                !
 ! A16   A(7,6,11)             119.1831         estimate D2E/DX2                !
 ! A17   A(5,7,6)              117.9124         estimate D2E/DX2                !
 ! A18   A(5,7,12)             120.4308         estimate D2E/DX2                !
 ! A19   A(6,7,12)             121.6568         estimate D2E/DX2                !
 ! A20   A(1,8,13)             152.1528         estimate D2E/DX2                !
 ! A21   A(8,13,14)            106.7015         estimate D2E/DX2                !
 ! A22   A(8,13,15)             78.3702         estimate D2E/DX2                !
 ! A23   A(14,13,15)           134.4412         estimate D2E/DX2                !
 ! A24   A(2,15,13)            143.8035         estimate D2E/DX2                !
 ! D1    D(8,1,3,2)              1.8252         estimate D2E/DX2                !
 ! D2    D(8,1,3,4)           -178.1461         estimate D2E/DX2                !
 ! D3    D(3,1,8,13)             2.218          estimate D2E/DX2                !
 ! D4    D(5,2,3,1)           -179.6964         estimate D2E/DX2                !
 ! D5    D(5,2,3,4)              0.278          estimate D2E/DX2                !
 ! D6    D(15,2,3,1)             0.4507         estimate D2E/DX2                !
 ! D7    D(15,2,3,4)          -179.5749         estimate D2E/DX2                !
 ! D8    D(3,2,5,7)             -0.1672         estimate D2E/DX2                !
 ! D9    D(3,2,5,10)           179.7881         estimate D2E/DX2                !
 ! D10   D(15,2,5,7)           179.6776         estimate D2E/DX2                !
 ! D11   D(15,2,5,10)           -0.3671         estimate D2E/DX2                !
 ! D12   D(3,2,15,13)           -6.1898         estimate D2E/DX2                !
 ! D13   D(5,2,15,13)          173.9508         estimate D2E/DX2                !
 ! D14   D(1,3,4,6)            179.7501         estimate D2E/DX2                !
 ! D15   D(1,3,4,9)             -0.1145         estimate D2E/DX2                !
 ! D16   D(2,3,4,6)             -0.2227         estimate D2E/DX2                !
 ! D17   D(2,3,4,9)            179.9126         estimate D2E/DX2                !
 ! D18   D(3,4,6,7)              0.0669         estimate D2E/DX2                !
 ! D19   D(3,4,6,11)          -179.8963         estimate D2E/DX2                !
 ! D20   D(9,4,6,7)            179.924          estimate D2E/DX2                !
 ! D21   D(9,4,6,11)            -0.0392         estimate D2E/DX2                !
 ! D22   D(2,5,7,6)             -0.0156         estimate D2E/DX2                !
 ! D23   D(2,5,7,12)           179.9426         estimate D2E/DX2                !
 ! D24   D(10,5,7,6)          -179.9675         estimate D2E/DX2                !
 ! D25   D(10,5,7,12)           -0.0093         estimate D2E/DX2                !
 ! D26   D(4,6,7,5)              0.0605         estimate D2E/DX2                !
 ! D27   D(4,6,7,12)          -179.8972         estimate D2E/DX2                !
 ! D28   D(11,6,7,5)          -179.9762         estimate D2E/DX2                !
 ! D29   D(11,6,7,12)            0.0661         estimate D2E/DX2                !
 ! D30   D(1,8,13,14)         -137.6226         estimate D2E/DX2                !
 ! D31   D(1,8,13,15)           -4.4198         estimate D2E/DX2                !
 ! D32   D(8,13,15,2)            7.3388         estimate D2E/DX2                !
 ! D33   D(14,13,15,2)         109.4095         estimate D2E/DX2                !
 --------------------------------------------------------------------------------
 Trust Radius=3.00D-01 FncErr=1.00D-07 GrdErr=1.00D-06
 Number of steps in this run=     83 maximum allowed number of steps=    100.
 GradGradGradGradGradGradGradGradGradGradGradGradGradGradGradGradGradGrad

 Leave Link  103 at Thu Aug 26 23:57:01 2021, MaxMem= 17179869184 cpu:         1.9
 (Enter /public3/home/sc51754/softwares/g09e01/l202.exe)
                          Input orientation:                          
 ---------------------------------------------------------------------
 Center     Atomic      Atomic             Coordinates (Angstroms)
 Number     Number       Type             X           Y           Z
 ---------------------------------------------------------------------
      1          8           0        1.261476    1.387852    0.005408
      2          7           0        0.249425   -0.658880    0.011581
      3          6           0        0.210209    0.735997    0.005920
      4          6           0       -1.119592    1.287625    0.000474
      5          6           0       -0.843575   -1.460822    0.006702
      6          6           0       -2.218160    0.481905   -0.003521
      7          6           0       -2.095586   -0.930593   -0.001061
      8          1           0        2.701404    0.273138   -0.041623
      9          1           0       -1.196826    2.364370   -0.002539
     10          1           0       -0.649991   -2.523426    0.008616
     11          1           0       -3.205344    0.926047   -0.009282
     12          1           0       -2.960874   -1.573618   -0.005843
     13          8           0        3.106669   -0.619787   -0.085978
     14          1           0        3.833439   -0.624251    0.540740
     15          1           0        1.187279   -1.059291    0.022340
 ---------------------------------------------------------------------
                    Distance matrix (angstroms):
                    1          2          3          4          5
     1  O    0.000000
     2  N    2.283286   0.000000
     3  C    1.236963   1.395440   0.000000
     4  C    2.383182   2.379751   1.439685   0.000000
     5  C    3.542059   1.355649   2.436488   2.762279   0.000000
     6  C    3.595648   2.718565   2.441645   1.362370   2.379869
     7  C    4.079840   2.360734   2.845042   2.423439   1.359682
     8  H    1.821590   2.623679   2.534275   3.953602   3.946622
     9  H    2.645165   3.351400   2.152073   1.079516   3.841480
    10  H    4.353368   2.070142   3.371022   3.839883   1.080095
    11  H    4.490653   3.801034   3.420870   2.116883   3.357879
    12  H    5.157390   3.338124   3.923038   3.402509   2.120339
    13  O    2.728315   2.859176   3.199387   4.637561   4.039846
    14  H    3.309098   3.623033   3.906930   5.336635   4.781162
    15  H    2.448326   1.019811   2.044014   3.290919   2.070227
                    6          7          8          9         10
     6  C    0.000000
     7  C    1.417809   0.000000
     8  H    4.924139   4.945880   0.000000
     9  H    2.141681   3.415341   4.423910   0.000000
    10  H    3.389884   2.151036   4.365220   4.918303   0.000000
    11  H    1.082510   2.163040   5.942811   2.470418   4.292903
    12  H    2.185590   1.078066   5.955937   4.315046   2.498504
    13  O    5.438228   5.212223   0.981592   5.237578   4.212515
    14  H    6.175893   5.961605   1.557548   5.876272   4.898078
    15  H    3.738043   3.285470   2.017928   4.172053   2.349349
                   11         12         13         14         15
    11  H    0.000000
    12  H    2.511594   0.000000
    13  O    6.498999   6.142580   0.000000
    14  H    7.228445   6.882059   0.959682   0.000000
    15  H    4.820550   4.180012   1.972043   2.731330   0.000000
 Stoichiometry    C5H7NO2
 Framework group  C1[X(C5H7NO2)]
 Deg. of freedom    39
 Full point group                 C1      NOp   1
 Largest Abelian subgroup         C1      NOp   1
 Largest concise Abelian subgroup C1      NOp   1
                         Standard orientation:                         
 ---------------------------------------------------------------------
 Center     Atomic      Atomic             Coordinates (Angstroms)
 Number     Number       Type             X           Y           Z
 ---------------------------------------------------------------------
      1          8           0        1.261476    1.387852    0.005408
      2          7           0        0.249425   -0.658880    0.011581
      3          6           0        0.210209    0.735997    0.005920
      4          6           0       -1.119592    1.287625    0.000474
      5          6           0       -0.843575   -1.460822    0.006702
      6          6           0       -2.218160    0.481905   -0.003521
      7          6           0       -2.095586   -0.930593   -0.001061
      8          1           0        2.701404    0.273138   -0.041623
      9          1           0       -1.196826    2.364370   -0.002539
     10          1           0       -0.649991   -2.523426    0.008616
     11          1           0       -3.205344    0.926047   -0.009282
     12          1           0       -2.960874   -1.573618   -0.005843
     13          8           0        3.106669   -0.619787   -0.085978
     14          1           0        3.833439   -0.624251    0.540740
     15          1           0        1.187279   -1.059291    0.022340
 ---------------------------------------------------------------------
 Rotational constants (GHZ):      4.0248921      1.3974909      1.0390436
 Leave Link  202 at Thu Aug 26 23:57:02 2021, MaxMem= 17179869184 cpu:         6.5
 (Enter /public3/home/sc51754/softwares/g09e01/l301.exe)
 General basis read from cards:  (5D, 7F)
 Centers:       8      9     10     11     12     14     15
 S 4 1.00
     Exponent=  7.5423000000D+01 Coefficients=  2.4065000000D-03
     Exponent=  1.1350000000D+01 Coefficients=  1.8487000000D-02
     Exponent=  2.5993000000D+00 Coefficients=  8.9742000000D-02
     Exponent=  7.3513000000D-01 Coefficients=  2.8111000000D-01
 S 1 1.00
     Exponent=  2.3167000000D-01 Coefficients=  1.0000000000D+00
 S 1 1.00
     Exponent=  7.4147000000D-02 Coefficients=  1.0000000000D+00
 P 1 1.00
     Exponent=  1.6000000000D+00 Coefficients=  1.0000000000D+00
 P 1 1.00
     Exponent=  4.5000000000D-01 Coefficients=  1.0000000000D+00
 D 1 1.00
     Exponent=  1.2500000000D+00 Coefficients=  1.0000000000D+00
 ****
 Centers:       3      4      5      6      7
 S 7 1.00
     Exponent=  7.8571000000D+03 Coefficients=  5.6825000000D-04
     Exponent=  1.1787000000D+03 Coefficients=  4.3915000000D-03
     Exponent=  2.6832000000D+02 Coefficients=  2.2504000000D-02
     Exponent=  7.5948000000D+01 Coefficients=  8.6653000000D-02
     Exponent=  2.4559000000D+01 Coefficients=  2.4405000000D-01
     Exponent=  8.6212000000D+00 Coefficients=  4.4148000000D-01
     Exponent=  3.1278000000D+00 Coefficients=  3.5332000000D-01
 S 7 1.00
     Exponent=  1.1787000000D+03 Coefficients= -5.9492000000D-07
     Exponent=  2.6832000000D+02 Coefficients= -6.2748000000D-05
     Exponent=  7.5948000000D+01 Coefficients= -7.5773000000D-04
     Exponent=  2.4559000000D+01 Coefficients= -7.3308000000D-03
     Exponent=  8.6212000000D+00 Coefficients= -3.8932000000D-02
     Exponent=  3.1278000000D+00 Coefficients= -8.8908000000D-02
     Exponent=  8.2202000000D-01 Coefficients=  2.1689000000D-01
 S 1 1.00
     Exponent=  3.3017000000D-01 Coefficients=  1.0000000000D+00
 S 1 1.00
     Exponent=  1.1463000000D-01 Coefficients=  1.0000000000D+00
 P 4 1.00
     Exponent=  3.3775000000D+01 Coefficients=  6.0294000000D-03
     Exponent=  7.6766000000D+00 Coefficients=  4.3228000000D-02
     Exponent=  2.2357000000D+00 Coefficients=  1.6301000000D-01
     Exponent=  7.6447000000D-01 Coefficients=  3.6504000000D-01
 P 1 1.00
     Exponent=  2.6232000000D-01 Coefficients=  1.0000000000D+00
 P 1 1.00
     Exponent=  8.4638000000D-02 Coefficients=  1.0000000000D+00
 D 1 1.00
     Exponent=  1.4000000000D+00 Coefficients=  1.0000000000D+00
 D 1 1.00
     Exponent=  4.5000000000D-01 Coefficients=  1.0000000000D+00
 F 1 1.00
     Exponent=  9.5000000000D-01 Coefficients=  1.0000000000D+00
 ****
 Centers:       2
 S 7 1.00
     Exponent=  1.1101000000D+04 Coefficients=  5.4570000000D-04
     Exponent=  1.6653000000D+03 Coefficients=  4.2181000000D-03
     Exponent=  3.7908000000D+02 Coefficients=  2.1645000000D-02
     Exponent=  1.0730000000D+02 Coefficients=  8.3776000000D-02
     Exponent=  3.4747000000D+01 Coefficients=  2.3881000000D-01
     Exponent=  1.2249000000D+01 Coefficients=  4.3994000000D-01
     Exponent=  4.4743000000D+00 Coefficients=  3.6364000000D-01
 S 7 1.00
     Exponent=  1.6653000000D+03 Coefficients= -1.5006000000D-06
     Exponent=  3.7908000000D+02 Coefficients= -5.8753000000D-05
     Exponent=  1.0730000000D+02 Coefficients= -7.7453000000D-04
     Exponent=  3.4747000000D+01 Coefficients= -7.2161000000D-03
     Exponent=  1.2249000000D+01 Coefficients= -3.9338000000D-02
     Exponent=  4.4743000000D+00 Coefficients= -9.0611000000D-02
     Exponent=  1.2404000000D+00 Coefficients=  1.9882000000D-01
 S 1 1.00
     Exponent=  4.8743000000D-01 Coefficients=  1.0000000000D+00
 S 1 1.00
     Exponent=  1.6484000000D-01 Coefficients=  1.0000000000D+00
 P 4 1.00
     Exponent=  4.7934000000D+01 Coefficients=  6.1706000000D-03
     Exponent=  1.0999000000D+01 Coefficients=  4.4260000000D-02
     Exponent=  3.2472000000D+00 Coefficients=  1.6825000000D-01
     Exponent=  1.1114000000D+00 Coefficients=  3.6848000000D-01
 P 1 1.00
     Exponent=  3.7988000000D-01 Coefficients=  1.0000000000D+00
 P 1 1.00
     Exponent=  1.2068000000D-01 Coefficients=  1.0000000000D+00
 D 1 1.00
     Exponent=  1.8000000000D+00 Coefficients=  1.0000000000D+00
 D 1 1.00
     Exponent=  5.5000000000D-01 Coefficients=  1.0000000000D+00
 F 1 1.00
     Exponent=  1.0200000000D+00 Coefficients=  1.0000000000D+00
 ****
 Centers:       1     13
 S 7 1.00
     Exponent=  1.4782000000D+04 Coefficients=  5.3519000000D-04
     Exponent=  2.2173000000D+03 Coefficients=  4.1375000000D-03
     Exponent=  5.0474000000D+02 Coefficients=  2.1245000000D-02
     Exponent=  1.4287000000D+02 Coefficients=  8.2453000000D-02
     Exponent=  4.6300000000D+01 Coefficients=  2.3671000000D-01
     Exponent=  1.6337000000D+01 Coefficients=  4.4039000000D-01
     Exponent=  5.9828000000D+00 Coefficients=  3.6465000000D-01
 S 7 1.00
     Exponent=  2.2173000000D+03 Coefficients= -1.9275000000D-06
     Exponent=  5.0474000000D+02 Coefficients= -5.7964000000D-05
     Exponent=  1.4287000000D+02 Coefficients= -7.9494000000D-04
     Exponent=  4.6300000000D+01 Coefficients= -7.3125000000D-03
     Exponent=  1.6337000000D+01 Coefficients= -4.0574000000D-02
     Exponent=  5.9828000000D+00 Coefficients= -9.1594000000D-02
     Exponent=  1.6718000000D+00 Coefficients=  2.0940000000D-01
 S 1 1.00
     Exponent=  6.4662000000D-01 Coefficients=  1.0000000000D+00
 S 1 1.00
     Exponent=  2.1669000000D-01 Coefficients=  1.0000000000D+00
 P 4 1.00
     Exponent=  6.0424000000D+01 Coefficients=  6.8949000000D-03
     Exponent=  1.3935000000D+01 Coefficients=  4.9005000000D-02
     Exponent=  4.1531000000D+00 Coefficients=  1.8255000000D-01
     Exponent=  1.4158000000D+00 Coefficients=  3.7633000000D-01
 P 1 1.00
     Exponent=  4.7549000000D-01 Coefficients=  1.0000000000D+00
 P 1 1.00
     Exponent=  1.4529000000D-01 Coefficients=  1.0000000000D+00
 D 1 1.00
     Exponent=  2.2000000000D+00 Coefficients=  1.0000000000D+00
 D 1 1.00
     Exponent=  6.5000000000D-01 Coefficients=  1.0000000000D+00
 F 1 1.00
     Exponent=  1.1000000000D+00 Coefficients=  1.0000000000D+00
 ****
 Ernie: Thresh=  0.10000D-02 Tol=  0.10000D-05 Strict=F.
 Ernie:  8 primitive shells out of 263 were deleted.
 There are   385 symmetry adapted cartesian basis functions of A   symmetry.
 There are   338 symmetry adapted basis functions of A   symmetry.
   338 basis functions,   566 primitive gaussians,   385 cartesian basis functions
    30 alpha electrons       30 beta electrons
       nuclear repulsion energy       356.8539014902 Hartrees.
 IExCor=  205 DFT=T Ex=S Corr=VWN ExCW=0 ScaHFX=  0.000000
 ScaDFX=  1.000000  1.000000  1.000000  1.000000 ScalE2=  1.000000  1.000000
 IRadAn=      0 IRanWt=     -1 IRanGd=            0 ICorTp=0 IEmpDi=  4
 NAtoms=   15 NActive=   15 NUniq=   15 SFac= 1.00D+00 NAtFMM=   60 NAOKFM=F Big=F
 Integral buffers will be    131072 words long.
 Raffenetti 2 integral format.
 Two-electron integral symmetry is turned on.
 Leave Link  301 at Thu Aug 26 23:57:03 2021, MaxMem= 17179869184 cpu:        23.1
 (Enter /public3/home/sc51754/softwares/g09e01/l302.exe)
 NPDir=0 NMtPBC=     1 NCelOv=     1 NCel=       1 NClECP=     1 NCelD=      1
         NCelK=      1 NCelE2=     1 NClLst=     1 CellRange=     0.0.
 One-electron integrals computed using PRISM.
 NBasis=   338 RedAO= T EigKep=  1.57D-04  NBF=   338
 NBsUse=   338 1.00D-06 EigRej= -1.00D+00 NBFU=   338
 Precomputing XC quadrature grid using
 IXCGrd= 4 IRadAn=           0 IRanWt=          -1 IRanGd=           0 AccXCQ= 0.00D+00.
 Generated NRdTot=       0 NPtTot=           0 NUsed=           0 NTot=          32
 NSgBfM=   385   385   385   385   385 MxSgAt=    15 MxSgA2=    15.
 Leave Link  302 at Thu Aug 26 23:57:05 2021, MaxMem= 17179869184 cpu:       117.9
 (Enter /public3/home/sc51754/softwares/g09e01/l303.exe)
 DipDrv:  MaxL=1.
 Leave Link  303 at Thu Aug 26 23:57:07 2021, MaxMem= 17179869184 cpu:        12.8
 (Enter /public3/home/sc51754/softwares/g09e01/l401.exe)
 ExpMin= 7.41D-02 ExpMax= 1.48D+04 ExpMxC= 5.05D+02 IAcc=2 IRadAn=         4 AccDes= 0.00D+00
 Harris functional with IExCor=  205 and IRadAn=       4 diagonalized for initial guess.
 HarFok:  IExCor=  205 AccDes= 0.00D+00 IRadAn=         4 IDoV= 1 UseB2=F ITyADJ=14
 ICtDFT=  3500011 ScaDFX=  1.000000  1.000000  1.000000  1.000000
 FoFCou: FMM=F IPFlag=           0 FMFlag=      100000 FMFlg1=           0
         NFxFlg=           0 DoJE=T BraDBF=F KetDBF=T FulRan=T
         wScrn=  0.000000 ICntrl=     500 IOpCl=  0 I1Cent=   200000004 NGrid=           0
         NMat0=    1 NMatS0=      1 NMatT0=    0 NMatD0=    1 NMtDS0=    0 NMtDT0=    0
 Petite list used in FoFCou.
 Harris En= -398.235883594831    
 JPrj=0 DoOrth=F DoCkMO=F.
 Leave Link  401 at Thu Aug 26 23:57:09 2021, MaxMem= 17179869184 cpu:        62.4
 (Enter /public3/home/sc51754/softwares/g09e01/l502.exe)
 Closed shell SCF:
 Using DIIS extrapolation, IDIIS=  1040.
 Integral symmetry usage will be decided dynamically.
 Keep J ints in memory in canonical form, NReq=1670404686.
 IVT=      490665 IEndB=      490665 NGot= 17179869184 MDV= 15538220534
 LenX= 15538220534 LenY= 15538071868
 Requested convergence on RMS density matrix=1.00D-08 within 128 cycles.
 Requested convergence on MAX density matrix=1.00D-06.
 Requested convergence on             energy=1.00D-06.
 No special actions if energy rises.
 FoFCou: FMM=F IPFlag=           0 FMFlag=           0 FMFlg1=           0
         NFxFlg=           0 DoJE=F BraDBF=F KetDBF=F FulRan=T
         wScrn=  0.000000 ICntrl=     600 IOpCl=  0 I1Cent=           0 NGrid=           0
         NMat0=    1 NMatS0=  57291 NMatT0=    0 NMatD0=    1 NMtDS0=    0 NMtDT0=    0
 Symmetry not used in FoFCou.
 Integral accuracy reduced to 1.0D-05 until final iterations.

 Cycle   1  Pass 0  IDiag  1:
 E= -397.778294340436    
 DIIS: error= 2.55D-02 at cycle   1 NSaved=   1.
 NSaved= 1 IEnMin= 1 EnMin= -397.778294340436     IErMin= 1 ErrMin= 2.55D-02
 ErrMax= 2.55D-02  0.00D+00 EMaxC= 1.00D-01 BMatC= 2.97D-01 BMatP= 2.97D-01
 IDIUse=3 WtCom= 7.45D-01 WtEn= 2.55D-01
 Coeff-Com:  0.100D+01
 Coeff-En:   0.100D+01
 Coeff:      0.100D+01
 Gap=     0.094 Goal=   None    Shift=    0.000
 GapD=    0.094 DampG=0.500 DampE=0.500 DampFc=0.2500 IDamp=-1.
 Damping current iteration by 2.50D-01
 RMSDP=4.04D-03 MaxDP=1.48D-01              OVMax= 4.44D-01

 Cycle   2  Pass 0  IDiag  1:
 E= -397.859325994467     Delta-E=       -0.081031654031 Rises=F Damp=T
 DIIS: error= 1.11D-02 at cycle   2 NSaved=   2.
 NSaved= 2 IEnMin= 2 EnMin= -397.859325994467     IErMin= 2 ErrMin= 1.11D-02
 ErrMax= 1.11D-02  0.00D+00 EMaxC= 1.00D-01 BMatC= 3.57D-02 BMatP= 2.97D-01
 IDIUse=3 WtCom= 8.89D-01 WtEn= 1.11D-01
 Coeff-Com: -0.268D+00 0.127D+01
 Coeff-En:   0.805D-01 0.919D+00
 Coeff:     -0.230D+00 0.123D+01
 Gap=     0.166 Goal=   None    Shift=    0.000
 RMSDP=1.02D-03 MaxDP=4.46D-02 DE=-8.10D-02 OVMax= 4.44D-01

 Cycle   3  Pass 0  IDiag  1:
 E= -397.945039660545     Delta-E=       -0.085713666078 Rises=F Damp=F
 DIIS: error= 1.80D-02 at cycle   3 NSaved=   3.
 NSaved= 3 IEnMin= 3 EnMin= -397.945039660545     IErMin= 2 ErrMin= 1.11D-02
 ErrMax= 1.80D-02  0.00D+00 EMaxC= 1.00D-01 BMatC= 9.20D-02 BMatP= 3.57D-02
 IDIUse=2 WtCom= 0.00D+00 WtEn= 1.00D+00
 EnCoef did     7 forward-backward iterations
 Coeff-En:   0.278D-01 0.102D+00 0.870D+00
 Coeff:      0.278D-01 0.102D+00 0.870D+00
 Gap=     0.088 Goal=   None    Shift=    0.000
 RMSDP=2.67D-03 MaxDP=1.48D-01 DE=-8.57D-02 OVMax= 5.96D-01

 Cycle   4  Pass 0  IDiag  1:
 E= -397.208915708365     Delta-E=        0.736123952179 Rises=F Damp=F
 DIIS: error= 6.06D-02 at cycle   4 NSaved=   4.
 NSaved= 4 IEnMin= 3 EnMin= -397.945039660545     IErMin= 2 ErrMin= 1.11D-02
 ErrMax= 6.06D-02  0.00D+00 EMaxC= 1.00D-01 BMatC= 9.04D-01 BMatP= 3.57D-02
 IDIUse=2 WtCom= 0.00D+00 WtEn= 1.00D+00
 Coeff-En:   0.000D+00 0.000D+00 0.837D+00 0.163D+00
 Coeff:      0.000D+00 0.000D+00 0.837D+00 0.163D+00
 Gap=     0.085 Goal=   None    Shift=    0.000
 RMSDP=1.69D-03 MaxDP=8.63D-02 DE= 7.36D-01 OVMax= 3.68D-01

 Cycle   5  Pass 0  IDiag  1:
 E= -397.954325181250     Delta-E=       -0.745409472885 Rises=F Damp=F
 DIIS: error= 1.74D-02 at cycle   5 NSaved=   5.
 NSaved= 5 IEnMin= 5 EnMin= -397.954325181250     IErMin= 2 ErrMin= 1.11D-02
 ErrMax= 1.74D-02  0.00D+00 EMaxC= 1.00D-01 BMatC= 8.44D-02 BMatP= 3.57D-02
 IDIUse=2 WtCom= 0.00D+00 WtEn= 1.00D+00
 Coeff-En:   0.000D+00 0.000D+00 0.480D+00 0.000D+00 0.520D+00
 Coeff:      0.000D+00 0.000D+00 0.480D+00 0.000D+00 0.520D+00
 Gap=     0.140 Goal=   None    Shift=    0.000
 RMSDP=6.33D-04 MaxDP=3.79D-02 DE=-7.45D-01 OVMax= 1.55D-01

 Cycle   6  Pass 0  IDiag  1:
 E= -398.030153598860     Delta-E=       -0.075828417610 Rises=F Damp=F
 DIIS: error= 2.09D-03 at cycle   6 NSaved=   6.
 NSaved= 6 IEnMin= 6 EnMin= -398.030153598860     IErMin= 6 ErrMin= 2.09D-03
 ErrMax= 2.09D-03  0.00D+00 EMaxC= 1.00D-01 BMatC= 1.56D-03 BMatP= 3.57D-02
 IDIUse=3 WtCom= 9.79D-01 WtEn= 2.09D-02
 Coeff-Com: -0.175D-01 0.328D-01 0.221D+00-0.294D-01 0.324D+00 0.469D+00
 Coeff-En:   0.000D+00 0.000D+00 0.000D+00 0.000D+00 0.000D+00 0.100D+01
 Coeff:     -0.172D-01 0.321D-01 0.216D+00-0.288D-01 0.317D+00 0.480D+00
 Gap=     0.123 Goal=   None    Shift=    0.000
 RMSDP=1.11D-04 MaxDP=6.86D-03 DE=-7.58D-02 OVMax= 2.25D-02

 Cycle   7  Pass 0  IDiag  1:
 E= -398.031118465458     Delta-E=       -0.000964866598 Rises=F Damp=F
 DIIS: error= 9.60D-04 at cycle   7 NSaved=   7.
 NSaved= 7 IEnMin= 7 EnMin= -398.031118465458     IErMin= 7 ErrMin= 9.60D-04
 ErrMax= 9.60D-04  0.00D+00 EMaxC= 1.00D-01 BMatC= 4.08D-04 BMatP= 1.56D-03
 IDIUse=3 WtCom= 9.90D-01 WtEn= 9.60D-03
 Coeff-Com: -0.611D-02 0.133D-01 0.935D-01-0.183D-01 0.143D+00 0.324D+00
 Coeff-Com:  0.451D+00
 Coeff-En:   0.000D+00 0.000D+00 0.000D+00 0.000D+00 0.000D+00 0.251D+00
 Coeff-En:   0.749D+00
 Coeff:     -0.605D-02 0.132D-01 0.926D-01-0.181D-01 0.142D+00 0.323D+00
 Coeff:      0.453D+00
 Gap=     0.123 Goal=   None    Shift=    0.000
 RMSDP=5.14D-05 MaxDP=2.56D-03 DE=-9.65D-04 OVMax= 1.25D-02

 Cycle   8  Pass 0  IDiag  1:
 E= -398.031475482241     Delta-E=       -0.000357016784 Rises=F Damp=F
 DIIS: error= 3.97D-04 at cycle   8 NSaved=   8.
 NSaved= 8 IEnMin= 8 EnMin= -398.031475482241     IErMin= 8 ErrMin= 3.97D-04
 ErrMax= 3.97D-04  0.00D+00 EMaxC= 1.00D-01 BMatC= 4.95D-05 BMatP= 4.08D-04
 IDIUse=3 WtCom= 9.96D-01 WtEn= 3.97D-03
 Coeff-Com:  0.276D-02 0.503D-03 0.210D-01-0.371D-02 0.196D-01 0.113D+00
 Coeff-Com:  0.280D+00 0.567D+00
 Coeff-En:   0.000D+00 0.000D+00 0.000D+00 0.000D+00 0.000D+00 0.000D+00
 Coeff-En:   0.557D-02 0.994D+00
 Coeff:      0.275D-02 0.501D-03 0.209D-01-0.369D-02 0.195D-01 0.112D+00
 Coeff:      0.279D+00 0.569D+00
 Gap=     0.124 Goal=   None    Shift=    0.000
 RMSDP=1.84D-05 MaxDP=9.92D-04 DE=-3.57D-04 OVMax= 4.39D-03

 Cycle   9  Pass 0  IDiag  1:
 E= -398.031510001093     Delta-E=       -0.000034518851 Rises=F Damp=F
 DIIS: error= 2.53D-04 at cycle   9 NSaved=   9.
 NSaved= 9 IEnMin= 9 EnMin= -398.031510001093     IErMin= 9 ErrMin= 2.53D-04
 ErrMax= 2.53D-04  0.00D+00 EMaxC= 1.00D-01 BMatC= 9.85D-06 BMatP= 4.95D-05
 IDIUse=3 WtCom= 9.97D-01 WtEn= 2.53D-03
 Coeff-Com:  0.428D-02-0.531D-02 0.603D-02-0.650D-03 0.792D-03 0.569D-01
 Coeff-Com:  0.155D+00 0.396D+00 0.387D+00
 Coeff-En:   0.000D+00 0.000D+00 0.000D+00 0.000D+00 0.000D+00 0.000D+00
 Coeff-En:   0.000D+00 0.140D+00 0.860D+00
 Coeff:      0.427D-02-0.530D-02 0.602D-02-0.648D-03 0.790D-03 0.568D-01
 Coeff:      0.155D+00 0.395D+00 0.388D+00
 Gap=     0.124 Goal=   None    Shift=    0.000
 RMSDP=7.24D-06 MaxDP=5.01D-04 DE=-3.45D-05 OVMax= 1.73D-03

 Initial convergence to 1.0D-05 achieved.  Increase integral accuracy.
 Cycle  10  Pass 1  IDiag  1:
 E= -398.031590874928     Delta-E=       -0.000080873835 Rises=F Damp=F
 DIIS: error= 3.61D-05 at cycle   1 NSaved=   1.
 NSaved= 1 IEnMin= 1 EnMin= -398.031590874928     IErMin= 1 ErrMin= 3.61D-05
 ErrMax= 3.61D-05  0.00D+00 EMaxC= 1.00D-01 BMatC= 3.54D-07 BMatP= 3.54D-07
 IDIUse=1 WtCom= 1.00D+00 WtEn= 0.00D+00
 Coeff-Com:  0.100D+01
 Coeff:      0.100D+01
 Gap=     0.124 Goal=   None    Shift=    0.000
 RMSDP=7.24D-06 MaxDP=5.01D-04 DE=-8.09D-05 OVMax= 6.57D-04

 Cycle  11  Pass 1  IDiag  1:
 E= -398.031590031678     Delta-E=        0.000000843249 Rises=F Damp=F
 DIIS: error= 9.09D-05 at cycle   2 NSaved=   2.
 NSaved= 2 IEnMin= 1 EnMin= -398.031590874928     IErMin= 1 ErrMin= 3.61D-05
 ErrMax= 9.09D-05  0.00D+00 EMaxC= 1.00D-01 BMatC= 1.33D-06 BMatP= 3.54D-07
 IDIUse=1 WtCom= 1.00D+00 WtEn= 0.00D+00
 Coeff-Com:  0.680D+00 0.320D+00
 Coeff:      0.680D+00 0.320D+00
 Gap=     0.123 Goal=   None    Shift=    0.000
 RMSDP=2.52D-06 MaxDP=1.11D-04 DE= 8.43D-07 OVMax= 5.48D-04

 Cycle  12  Pass 1  IDiag  1:
 E= -398.031591191890     Delta-E=       -0.000001160211 Rises=F Damp=F
 DIIS: error= 1.44D-05 at cycle   3 NSaved=   3.
 NSaved= 3 IEnMin= 3 EnMin= -398.031591191890     IErMin= 3 ErrMin= 1.44D-05
 ErrMax= 1.44D-05  0.00D+00 EMaxC= 1.00D-01 BMatC= 5.94D-08 BMatP= 3.54D-07
 IDIUse=1 WtCom= 1.00D+00 WtEn= 0.00D+00
 Coeff-Com:  0.143D+00 0.181D+00 0.676D+00
 Coeff:      0.143D+00 0.181D+00 0.676D+00
 Gap=     0.124 Goal=   None    Shift=    0.000
 RMSDP=6.50D-07 MaxDP=3.28D-05 DE=-1.16D-06 OVMax= 9.76D-05

 Cycle  13  Pass 1  IDiag  1:
 E= -398.031591224396     Delta-E=       -0.000000032506 Rises=F Damp=F
 DIIS: error= 7.47D-06 at cycle   4 NSaved=   4.
 NSaved= 4 IEnMin= 4 EnMin= -398.031591224396     IErMin= 4 ErrMin= 7.47D-06
 ErrMax= 7.47D-06  0.00D+00 EMaxC= 1.00D-01 BMatC= 2.10D-08 BMatP= 5.94D-08
 IDIUse=1 WtCom= 1.00D+00 WtEn= 0.00D+00
 Coeff-Com:  0.278D-01 0.909D-01 0.473D+00 0.408D+00
 Coeff:      0.278D-01 0.909D-01 0.473D+00 0.408D+00
 Gap=     0.124 Goal=   None    Shift=    0.000
 RMSDP=4.10D-07 MaxDP=1.95D-05 DE=-3.25D-08 OVMax= 9.78D-05

 Cycle  14  Pass 1  IDiag  1:
 E= -398.031591240313     Delta-E=       -0.000000015917 Rises=F Damp=F
 DIIS: error= 4.81D-06 at cycle   5 NSaved=   5.
 NSaved= 5 IEnMin= 5 EnMin= -398.031591240313     IErMin= 5 ErrMin= 4.81D-06
 ErrMax= 4.81D-06  0.00D+00 EMaxC= 1.00D-01 BMatC= 3.52D-09 BMatP= 2.10D-08
 IDIUse=1 WtCom= 1.00D+00 WtEn= 0.00D+00
 Coeff-Com:  0.376D-02 0.475D-01 0.276D+00 0.306D+00 0.367D+00
 Coeff:      0.376D-02 0.475D-01 0.276D+00 0.306D+00 0.367D+00
 Gap=     0.124 Goal=   None    Shift=    0.000
 RMSDP=1.75D-07 MaxDP=8.46D-06 DE=-1.59D-08 OVMax= 4.67D-05

 Cycle  15  Pass 1  IDiag  1:
 E= -398.031591243591     Delta-E=       -0.000000003278 Rises=F Damp=F
 DIIS: error= 1.49D-06 at cycle   6 NSaved=   6.
 NSaved= 6 IEnMin= 6 EnMin= -398.031591243591     IErMin= 6 ErrMin= 1.49D-06
 ErrMax= 1.49D-06  0.00D+00 EMaxC= 1.00D-01 BMatC= 3.65D-10 BMatP= 3.52D-09
 IDIUse=1 WtCom= 1.00D+00 WtEn= 0.00D+00
 Coeff-Com: -0.843D-03 0.217D-01 0.133D+00 0.164D+00 0.271D+00 0.410D+00
 Coeff:     -0.843D-03 0.217D-01 0.133D+00 0.164D+00 0.271D+00 0.410D+00
 Gap=     0.124 Goal=   None    Shift=    0.000
 RMSDP=4.28D-08 MaxDP=2.53D-06 DE=-3.28D-09 OVMax= 8.61D-06

 Cycle  16  Pass 1  IDiag  1:
 E= -398.031591243939     Delta-E=       -0.000000000348 Rises=F Damp=F
 DIIS: error= 2.04D-07 at cycle   7 NSaved=   7.
 NSaved= 7 IEnMin= 7 EnMin= -398.031591243939     IErMin= 7 ErrMin= 2.04D-07
 ErrMax= 2.04D-07  0.00D+00 EMaxC= 1.00D-01 BMatC= 7.87D-12 BMatP= 3.65D-10
 IDIUse=1 WtCom= 1.00D+00 WtEn= 0.00D+00
 Coeff-Com: -0.535D-03 0.106D-01 0.656D-01 0.803D-01 0.144D+00 0.229D+00
 Coeff-Com:  0.471D+00
 Coeff:     -0.535D-03 0.106D-01 0.656D-01 0.803D-01 0.144D+00 0.229D+00
 Coeff:      0.471D+00
 Gap=     0.124 Goal=   None    Shift=    0.000
 RMSDP=9.41D-09 MaxDP=5.08D-07 DE=-3.48D-10 OVMax= 2.17D-06

 SCF Done:  E(RS-VWN) =  -398.031591244     A.U. after   16 cycles
            NFock= 16  Conv=0.94D-08     -V/T= 2.0036
 KE= 3.966164890232D+02 PE=-1.647511850213D+03 EE= 4.960098684561D+02
 Leave Link  502 at Thu Aug 26 23:57:34 2021, MaxMem= 17179869184 cpu:       341.0
 (Enter /public3/home/sc51754/softwares/g09e01/l601.exe)
 Copying SCF densities to generalized density rwf, IOpCl= 0 IROHF=0.

 **********************************************************************

            Population analysis using the SCF density.

 **********************************************************************

 Orbital symmetries:
       Occupied  (A) (A) (A) (A) (A) (A) (A) (A) (A) (A) (A) (A)
                 (A) (A) (A) (A) (A) (A) (A) (A) (A) (A) (A) (A)
                 (A) (A) (A) (A) (A) (A)
       Virtual   (A) (A) (A) (A) (A) (A) (A) (A) (A) (A) (A) (A)
                 (A) (A) (A) (A) (A) (A) (A) (A) (A) (A) (A) (A)
                 (A) (A) (A) (A) (A) (A) (A) (A) (A) (A) (A) (A)
                 (A) (A) (A) (A) (A) (A) (A) (A) (A) (A) (A) (A)
                 (A) (A) (A) (A) (A) (A) (A) (A) (A) (A) (A) (A)
                 (A) (A) (A) (A) (A) (A) (A) (A) (A) (A) (A) (A)
                 (A) (A) (A) (A) (A) (A) (A) (A) (A) (A) (A) (A)
                 (A) (A) (A) (A) (A) (A) (A) (A) (A) (A) (A) (A)
                 (A) (A) (A) (A) (A) (A) (A) (A) (A) (A) (A) (A)
                 (A) (A) (A) (A) (A) (A) (A) (A) (A) (A) (A) (A)
                 (A) (A) (A) (A) (A) (A) (A) (A) (A) (A) (A) (A)
                 (A) (A) (A) (A) (A) (A) (A) (A) (A) (A) (A) (A)
                 (A) (A) (A) (A) (A) (A) (A) (A) (A) (A) (A) (A)
                 (A) (A) (A) (A) (A) (A) (A) (A) (A) (A) (A) (A)
                 (A) (A) (A) (A) (A) (A) (A) (A) (A) (A) (A) (A)
                 (A) (A) (A) (A) (A) (A) (A) (A) (A) (A) (A) (A)
                 (A) (A) (A) (A) (A) (A) (A) (A) (A) (A) (A) (A)
                 (A) (A) (A) (A) (A) (A) (A) (A) (A) (A) (A) (A)
                 (A) (A) (A) (A) (A) (A) (A) (A) (A) (A) (A) (A)
                 (A) (A) (A) (A) (A) (A) (A) (A) (A) (A) (A) (A)
                 (A) (A) (A) (A) (A) (A) (A) (A) (A) (A) (A) (A)
                 (A) (A) (A) (A) (A) (A) (A) (A) (A) (A) (A) (A)
                 (A) (A) (A) (A) (A) (A) (A) (A) (A) (A) (A) (A)
                 (A) (A) (A) (A) (A) (A) (A) (A) (A) (A) (A) (A)
                 (A) (A) (A) (A) (A) (A) (A) (A) (A) (A) (A) (A)
                 (A) (A) (A) (A) (A) (A) (A) (A)
 The electronic state is 1-A.
 Alpha  occ. eigenvalues --  -18.59893 -18.58300 -13.93252  -9.89970  -9.86236
 Alpha  occ. eigenvalues --   -9.82779  -9.81405  -9.81155  -0.97519  -0.92513
 Alpha  occ. eigenvalues --   -0.90091  -0.77156  -0.71433  -0.62102  -0.60704
 Alpha  occ. eigenvalues --   -0.53798  -0.50084  -0.48487  -0.45980  -0.44174
 Alpha  occ. eigenvalues --   -0.43187  -0.41169  -0.37471  -0.36379  -0.34814
 Alpha  occ. eigenvalues --   -0.34365  -0.31202  -0.28348  -0.24960  -0.23329
 Alpha virt. eigenvalues --   -0.10978  -0.06357  -0.02421  -0.00772   0.00827
 Alpha virt. eigenvalues --    0.02449   0.04525   0.04926   0.06065   0.07848
 Alpha virt. eigenvalues --    0.09374   0.10481   0.11727   0.13130   0.14020
 Alpha virt. eigenvalues --    0.14459   0.15704   0.15969   0.17447   0.19594
 Alpha virt. eigenvalues --    0.20867   0.21341   0.22081   0.23087   0.23418
 Alpha virt. eigenvalues --    0.24911   0.25537   0.26386   0.28053   0.28174
 Alpha virt. eigenvalues --    0.28936   0.29242   0.31489   0.33357   0.34132
 Alpha virt. eigenvalues --    0.35555   0.36850   0.38937   0.39709   0.42430
 Alpha virt. eigenvalues --    0.43901   0.45146   0.46533   0.48099   0.50246
 Alpha virt. eigenvalues --    0.50791   0.54134   0.54976   0.56092   0.56801
 Alpha virt. eigenvalues --    0.59562   0.61526   0.64385   0.67500   0.68357
 Alpha virt. eigenvalues --    0.68703   0.70626   0.73400   0.74874   0.76988
 Alpha virt. eigenvalues --    0.79181   0.82145   0.84087   0.85139   0.85238
 Alpha virt. eigenvalues --    0.87171   0.89634   0.91354   0.93688   0.96768
 Alpha virt. eigenvalues --    0.98035   1.00151   1.01941   1.02583   1.04891
 Alpha virt. eigenvalues --    1.05819   1.07822   1.08957   1.09352   1.10004
 Alpha virt. eigenvalues --    1.12645   1.14501   1.14791   1.15173   1.16975
 Alpha virt. eigenvalues --    1.18377   1.19094   1.23439   1.24271   1.29270
 Alpha virt. eigenvalues --    1.30817   1.31517   1.33170   1.35665   1.36839
 Alpha virt. eigenvalues --    1.38482   1.39676   1.39834   1.40683   1.44693
 Alpha virt. eigenvalues --    1.47204   1.49311   1.52439   1.55529   1.56190
 Alpha virt. eigenvalues --    1.56854   1.59670   1.60308   1.63527   1.64156
 Alpha virt. eigenvalues --    1.69246   1.69634   1.71997   1.76045   1.76653
 Alpha virt. eigenvalues --    1.78685   1.79256   1.80875   1.83475   1.87095
 Alpha virt. eigenvalues --    1.90247   1.90595   1.92227   1.95736   1.96030
 Alpha virt. eigenvalues --    1.99279   2.01554   2.04294   2.06778   2.10554
 Alpha virt. eigenvalues --    2.10853   2.11108   2.14035   2.16649   2.19596
 Alpha virt. eigenvalues --    2.22264   2.29584   2.36817   2.40722   2.51707
 Alpha virt. eigenvalues --    2.57472   2.75202   2.77345   2.80236   2.82975
 Alpha virt. eigenvalues --    2.83679   2.89402   3.05831   3.06337   3.09421
 Alpha virt. eigenvalues --    3.11136   3.13270   3.13589   3.17094   3.20195
 Alpha virt. eigenvalues --    3.20955   3.23899   3.26969   3.30077   3.30841
 Alpha virt. eigenvalues --    3.33796   3.35653   3.39048   3.42620   3.43782
 Alpha virt. eigenvalues --    3.45520   3.47597   3.51385   3.52530   3.54853
 Alpha virt. eigenvalues --    3.56022   3.56391   3.59769   3.60073   3.64412
 Alpha virt. eigenvalues --    3.67920   3.72144   3.75083   3.78288   3.78573
 Alpha virt. eigenvalues --    3.81481   3.82564   3.83684   3.85174   3.87721
 Alpha virt. eigenvalues --    3.90686   3.92382   3.93783   3.95652   3.96301
 Alpha virt. eigenvalues --    3.97777   3.98720   4.01472   4.02246   4.04037
 Alpha virt. eigenvalues --    4.05765   4.06073   4.08891   4.09756   4.11125
 Alpha virt. eigenvalues --    4.12403   4.13220   4.14728   4.15565   4.17402
 Alpha virt. eigenvalues --    4.17550   4.19930   4.20942   4.22169   4.23005
 Alpha virt. eigenvalues --    4.24459   4.26171   4.28690   4.30186   4.32523
 Alpha virt. eigenvalues --    4.33917   4.35243   4.35765   4.37147   4.38132
 Alpha virt. eigenvalues --    4.39619   4.40796   4.43355   4.43897   4.46726
 Alpha virt. eigenvalues --    4.47560   4.48084   4.52025   4.52494   4.54827
 Alpha virt. eigenvalues --    4.57888   4.58983   4.61491   4.66775   4.71269
 Alpha virt. eigenvalues --    4.72733   4.74526   4.76022   4.77797   4.80189
 Alpha virt. eigenvalues --    4.80798   4.83710   4.83885   4.85264   4.86628
 Alpha virt. eigenvalues --    4.91121   4.94849   4.97550   5.01915   5.06738
 Alpha virt. eigenvalues --    5.07839   5.12507   5.14048   5.19566   5.19589
 Alpha virt. eigenvalues --    5.21847   5.22853   5.26243   5.28698   5.30873
 Alpha virt. eigenvalues --    5.34528   5.35659   5.42438   5.44694   5.45784
 Alpha virt. eigenvalues --    5.47769   5.52377   5.55688   5.59279   5.60805
 Alpha virt. eigenvalues --    5.63586   5.68921   5.73256   5.78930   5.83453
 Alpha virt. eigenvalues --    5.84085   5.84496   5.91216   5.96364   5.96799
 Alpha virt. eigenvalues --    5.98807   6.00494   6.08045   6.11054   6.14017
 Alpha virt. eigenvalues --    6.16248   6.20235   6.23826   6.29566   6.37449
 Alpha virt. eigenvalues --    6.37879   6.39792   6.48087   6.64743   6.75477
 Alpha virt. eigenvalues --    6.81001   6.85082   6.97359   7.10808   7.27535
 Alpha virt. eigenvalues --    9.39952  12.19970  13.07249  14.59975  15.26586
 Alpha virt. eigenvalues --   17.87160  18.23065  22.63686
          Condensed to atoms (all electrons):
               1          2          3          4          5          6
     1  O    8.088826  -0.096225   0.508924  -0.060133   0.010994   0.007208
     2  N   -0.096225   6.413399   0.340599  -0.041554   0.361954  -0.019054
     3  C    0.508924   0.340599   4.511544   0.407977  -0.040445  -0.042077
     4  C   -0.060133  -0.041554   0.407977   5.086346  -0.045257   0.472984
     5  C    0.010994   0.361954  -0.040445  -0.045257   4.760668  -0.079867
     6  C    0.007208  -0.019054  -0.042077   0.472984  -0.079867   4.891456
     7  C    0.001807  -0.044704  -0.034906  -0.059334   0.532342   0.413523
     8  H    0.047824   0.003300  -0.003872   0.001144   0.002279  -0.000374
     9  H    0.004637   0.006082  -0.037766   0.432577  -0.000516  -0.032258
    10  H   -0.000821  -0.028660   0.003523  -0.004439   0.417686   0.007736
    11  H   -0.000574  -0.002799   0.008631  -0.029780   0.009777   0.419963
    12  H    0.000030   0.006937  -0.001211   0.007266  -0.026853  -0.033448
    13  O   -0.040393  -0.034274   0.001499   0.000196  -0.004641   0.000140
    14  H    0.003715   0.000419   0.000628   0.000132   0.000055  -0.000019
    15  H    0.001057   0.380487  -0.026417   0.008565  -0.021876  -0.002837
               7          8          9         10         11         12
     1  O    0.001807   0.047824   0.004637  -0.000821  -0.000574   0.000030
     2  N   -0.044704   0.003300   0.006082  -0.028660  -0.002799   0.006937
     3  C   -0.034906  -0.003872  -0.037766   0.003523   0.008631  -0.001211
     4  C   -0.059334   0.001144   0.432577  -0.004439  -0.029780   0.007266
     5  C    0.532342   0.002279  -0.000516   0.417686   0.009777  -0.026853
     6  C    0.413523  -0.000374  -0.032258   0.007736   0.419963  -0.033448
     7  C    5.006346  -0.000046   0.007571  -0.040874  -0.039847   0.430289
     8  H   -0.000046   0.409434   0.000177   0.000163   0.000007  -0.000016
     9  H    0.007571   0.000177   0.530366   0.000285  -0.010434   0.000022
    10  H   -0.040874   0.000163   0.000285   0.551364  -0.000389  -0.005369
    11  H   -0.039847   0.000007  -0.010434  -0.000389   0.554930  -0.008619
    12  H    0.430289  -0.000016   0.000022  -0.005369  -0.008619   0.543073
    13  O   -0.000180   0.338074   0.000022  -0.000681  -0.000003   0.000025
    14  H    0.000028  -0.017366  -0.000005  -0.000069   0.000001   0.000000
    15  H    0.007333  -0.011187  -0.000536  -0.010414   0.000195   0.000052
              13         14         15
     1  O   -0.040393   0.003715   0.001057
     2  N   -0.034274   0.000419   0.380487
     3  C    0.001499   0.000628  -0.026417
     4  C    0.000196   0.000132   0.008565
     5  C   -0.004641   0.000055  -0.021876
     6  C    0.000140  -0.000019  -0.002837
     7  C   -0.000180   0.000028   0.007333
     8  H    0.338074  -0.017366  -0.011187
     9  H    0.000022  -0.000005  -0.000536
    10  H   -0.000681  -0.000069  -0.010414
    11  H   -0.000003   0.000001   0.000195
    12  H    0.000025   0.000000   0.000052
    13  O    7.786503   0.357185   0.063166
    14  H    0.357185   0.437361  -0.003120
    15  H    0.063166  -0.003120   0.443083
 Mulliken charges:
               1
     1  O   -0.476876
     2  N   -0.245906
     3  C    0.403370
     4  C   -0.176690
     5  C    0.123700
     6  C   -0.003075
     7  C   -0.179349
     8  H    0.230459
     9  H    0.099776
    10  H    0.110958
    11  H    0.098941
    12  H    0.087824
    13  O   -0.466636
    14  H    0.221055
    15  H    0.172450
 Sum of Mulliken charges =  -0.00000
 Mulliken charges with hydrogens summed into heavy atoms:
               1
     1  O   -0.476876
     2  N   -0.073456
     3  C    0.403370
     4  C   -0.076915
     5  C    0.234658
     6  C    0.095866
     7  C   -0.091525
    13  O   -0.015122
 Electronic spatial extent (au):  <R**2>=           1080.1891
 Charge=             -0.0000 electrons
 Dipole moment (field-independent basis, Debye):
    X=             -2.3948    Y=             -2.1166    Z=              1.1314  Tot=              3.3904
 Quadrupole moment (field-independent basis, Debye-Ang):
   XX=            -41.2780   YY=            -45.6494   ZZ=            -50.1362
   XY=             -2.0095   XZ=              4.8357   YZ=             -0.8924
 Traceless Quadrupole moment (field-independent basis, Debye-Ang):
   XX=              4.4099   YY=              0.0385   ZZ=             -4.4483
   XY=             -2.0095   XZ=              4.8357   YZ=             -0.8924
 Octapole moment (field-independent basis, Debye-Ang**2):
  XXX=             23.6739  YYY=            -11.4902  ZZZ=              0.7576  XYY=             -7.2294
  XXY=              0.0925  XXZ=             19.0728  XZZ=             11.1212  YZZ=              0.6780
  YYZ=              0.6168  XYZ=             -3.3543
 Hexadecapole moment (field-independent basis, Debye-Ang**3):
 XXXX=           -768.0653 YYYY=           -351.9498 ZZZZ=            -55.0748 XXXY=             -4.6777
 XXXZ=             77.4442 YYYX=            -12.5308 YYYZ=             -0.8820 ZZZX=              3.7070
 ZZZY=             -0.5754 XXYY=           -220.7011 XXZZ=           -177.4741 YYZZ=            -78.3202
 XXYZ=            -12.9341 YYXZ=              2.8719 ZZXY=             -2.0471
 N-N= 3.568539014902D+02 E-N=-1.647511836147D+03  KE= 3.966164890232D+02
 No NMR shielding tensors so no spin-rotation constants.
 Leave Link  601 at Thu Aug 26 23:57:35 2021, MaxMem= 17179869184 cpu:        51.7
 (Enter /public3/home/sc51754/softwares/g09e01/l701.exe)
 Compute integral first derivatives.
 ... and contract with generalized density number  0.
 Leave Link  701 at Thu Aug 26 23:57:37 2021, MaxMem= 17179869184 cpu:        72.9
 (Enter /public3/home/sc51754/softwares/g09e01/l702.exe)
 L702 exits ... SP integral derivatives will be done elsewhere.
 Leave Link  702 at Thu Aug 26 23:57:37 2021, MaxMem= 17179869184 cpu:         0.8
 (Enter /public3/home/sc51754/softwares/g09e01/l703.exe)
 Compute integral first derivatives, UseDBF=F ICtDFT=           0.
 Integral derivatives from FoFJK, PRISM(SPDF).
 Calling FoFJK, ICntrl=      2527 FMM=F ISym2X=0 I1Cent= 0 IOpClX= 0 NMat=1 NMatS=1 NMatT=0.
 FoFJK:  IHMeth= 1 ICntrl=    2527 DoSepK=F KAlg= 0 I1Cent=   0 FoldK=F
 IRaf=         0 NMat=   1 IRICut=       1 DoRegI=T DoRafI=F ISym2E= 0.
 FoFCou: FMM=F IPFlag=           0 FMFlag=      100000 FMFlg1=         800
         NFxFlg=           0 DoJE=F BraDBF=F KetDBF=F FulRan=T
         wScrn=  0.000000 ICntrl=    2527 IOpCl=  0 I1Cent=           0 NGrid=           0
         NMat0=    1 NMatS0=      1 NMatT0=    0 NMatD0=    1 NMtDS0=    0 NMtDT0=    0
 Symmetry not used in FoFCou.
 Leave Link  703 at Thu Aug 26 23:57:40 2021, MaxMem= 17179869184 cpu:       176.7
 (Enter /public3/home/sc51754/softwares/g09e01/l716.exe)
 Dipole        =-9.42171501D-01-8.32717608D-01 4.45130072D-01
 ***** Axes restored to original set *****
 -------------------------------------------------------------------
 Center     Atomic                   Forces (Hartrees/Bohr)
 Number     Number              X              Y              Z
 -------------------------------------------------------------------
      1        8           0.000334057   -0.004769331   -0.000115287
      2        7          -0.019498239    0.005341392   -0.000373052
      3        6          -0.002932850   -0.002190542    0.000093800
      4        6           0.005502468   -0.013489105    0.000055115
      5        6           0.004349336    0.014398979    0.000079509
      6        6           0.009857622   -0.009785468    0.000069834
      7        6           0.007689209    0.012349769    0.000011557
      8        1          -0.008488162    0.011778213    0.000042640
      9        1           0.000042401    0.007179816   -0.000026286
     10        1           0.001381981   -0.007086864   -0.000017021
     11        1          -0.006267482    0.002780693   -0.000046679
     12        1          -0.005496070   -0.004139779   -0.000027443
     13        8          -0.007099368   -0.008761957   -0.005267624
     14        1           0.005815742   -0.000647784    0.005390128
     15        1           0.014809357   -0.002958031    0.000130810
 -------------------------------------------------------------------
 Cartesian Forces:  Max     0.019498239 RMS     0.006901401
 Leave Link  716 at Thu Aug 26 23:57:40 2021, MaxMem= 17179869184 cpu:         2.0
 (Enter /public3/home/sc51754/softwares/g09e01/l103.exe)

 GradGradGradGradGradGradGradGradGradGradGradGradGradGradGradGradGradGrad
 Berny optimization.
 FormGI is forming the generalized inverse of G from B-inverse, IUseBI=4.
 Internal  Forces:  Max     0.010432715 RMS     0.003508837
 Search for a local minimum.
 Step number   1 out of a maximum of   83
 All quantities printed in internal units (Hartrees-Bohrs-Radians)
 RMS Force = .35088D-02 SwitMx=.10000D-02 MixMth= 1
 Mixed Optimization -- RFO/linear search
 Second derivative matrix not updated -- first step.
 ITU=  0
     Eigenvalues ---    0.00646   0.00900   0.01671   0.02019   0.02045
     Eigenvalues ---    0.02138   0.02190   0.02305   0.02392   0.02435
     Eigenvalues ---    0.02516   0.04986   0.06334   0.06909   0.09520
     Eigenvalues ---    0.16000   0.16000   0.16000   0.16000   0.19047
     Eigenvalues ---    0.20437   0.21968   0.22000   0.22256   0.23654
     Eigenvalues ---    0.35693   0.35983   0.36053   0.36229   0.38136
     Eigenvalues ---    0.40185   0.42590   0.44184   0.49041   0.49982
     Eigenvalues ---    0.52121   0.53321   0.55542   0.84771
 RFO step:  Lambda=-2.98991073D-03 EMin= 6.46442552D-03
 Linear search not attempted -- first point.
 Iteration  1 RMS(Cart)=  0.01900947 RMS(Int)=  0.00005273
 Iteration  2 RMS(Cart)=  0.00004583 RMS(Int)=  0.00002680
 Iteration  3 RMS(Cart)=  0.00000000 RMS(Int)=  0.00002680
 ITry= 1 IFail=0 DXMaxC= 8.23D-02 DCOld= 1.00D+10 DXMaxT= 3.00D-01 DXLimC= 3.00D+00 Rises=F
 Variable       Old X    -DE/DX   Delta X   Delta X   Delta X     New X
                                 (Linear)    (Quad)   (Total)
    R1        2.33752  -0.00381   0.00000  -0.00524  -0.00527   2.33225
    R2        3.44231  -0.00560   0.00000  -0.08886  -0.08884   3.35347
    R3        2.63700  -0.00687   0.00000  -0.01713  -0.01718   2.61982
    R4        2.56181  -0.01043   0.00000  -0.01969  -0.01970   2.54211
    R5        1.92716   0.01018   0.00000   0.02307   0.02306   1.95022
    R6        2.72061  -0.00913   0.00000  -0.02309  -0.02309   2.69752
    R7        2.57451  -0.00389   0.00000  -0.00693  -0.00693   2.56758
    R8        2.03999   0.00716   0.00000   0.01969   0.01969   2.05968
    R9        2.56943  -0.00329   0.00000  -0.00600  -0.00600   2.56343
   R10        2.04108   0.00722   0.00000   0.01990   0.01990   2.06099
   R11        2.67927  -0.00973   0.00000  -0.02183  -0.02182   2.65745
   R12        2.04565   0.00686   0.00000   0.01905   0.01905   2.06470
   R13        2.03725   0.00688   0.00000   0.01884   0.01884   2.05609
   R14        1.85494   0.00909   0.00000   0.01873   0.01877   1.87371
   R15        1.81354   0.00793   0.00000   0.01420   0.01420   1.82773
   R16        3.72662  -0.00575   0.00000  -0.10604  -0.10603   3.62059
    A1        1.92766   0.00076   0.00000  -0.00683  -0.00686   1.92080
    A2        2.17565   0.00089   0.00000   0.00274   0.00276   2.17841
    A3        2.00244  -0.00041   0.00000  -0.00585  -0.00591   1.99652
    A4        2.10509  -0.00048   0.00000   0.00311   0.00316   2.10825
    A5        2.09773   0.00197   0.00000   0.00158   0.00151   2.09924
    A6        2.19333  -0.00150   0.00000  -0.00076  -0.00070   2.19262
    A7        1.99213  -0.00047   0.00000  -0.00083  -0.00081   1.99132
    A8        2.11557   0.00055   0.00000   0.00193   0.00192   2.11749
    A9        2.03563  -0.00084   0.00000  -0.00443  -0.00442   2.03120
   A10        2.13199   0.00029   0.00000   0.00249   0.00250   2.13448
   A11        2.10801   0.00009   0.00000  -0.00128  -0.00129   2.10672
   A12        2.02357  -0.00014   0.00000   0.00006   0.00007   2.02365
   A13        2.15160   0.00005   0.00000   0.00121   0.00122   2.15282
   A14        2.11704  -0.00064   0.00000  -0.00153  -0.00153   2.11550
   A15        2.08601   0.00036   0.00000   0.00101   0.00101   2.08703
   A16        2.08014   0.00028   0.00000   0.00052   0.00052   2.08066
   A17        2.05796  -0.00041   0.00000  -0.00104  -0.00104   2.05692
   A18        2.10191   0.00016   0.00000   0.00022   0.00022   2.10213
   A19        2.12331   0.00025   0.00000   0.00082   0.00082   2.12413
   A20        2.65557  -0.00062   0.00000   0.00285   0.00294   2.65851
   A21        1.86229   0.00081   0.00000   0.00477   0.00477   1.86706
   A22        1.36782  -0.00107   0.00000   0.00986   0.00997   1.37779
   A23        2.34644  -0.00036   0.00000  -0.00462  -0.00468   2.34176
   A24        2.50984  -0.00064   0.00000  -0.00144  -0.00147   2.50838
    D1        0.03186  -0.00006   0.00000  -0.00167  -0.00167   0.03019
    D2       -3.10924  -0.00006   0.00000  -0.00048  -0.00047  -3.10971
    D3        0.03871   0.00009   0.00000  -0.00262  -0.00264   0.03607
    D4       -3.13629  -0.00002   0.00000   0.00057   0.00058  -3.13572
    D5        0.00485  -0.00002   0.00000  -0.00049  -0.00049   0.00436
    D6        0.00787  -0.00002   0.00000   0.00125   0.00126   0.00912
    D7       -3.13417  -0.00002   0.00000   0.00019   0.00019  -3.13398
    D8       -0.00292   0.00002   0.00000   0.00054   0.00054  -0.00238
    D9        3.13789  -0.00001   0.00000  -0.00019  -0.00019   3.13771
   D10        3.13597   0.00002   0.00000  -0.00019  -0.00019   3.13577
   D11       -0.00641  -0.00001   0.00000  -0.00092  -0.00092  -0.00733
   D12       -0.10803  -0.00007   0.00000   0.00000   0.00001  -0.10802
   D13        3.03601  -0.00007   0.00000   0.00065   0.00066   3.03667
   D14        3.13723   0.00001   0.00000  -0.00090  -0.00090   3.13633
   D15       -0.00200   0.00001   0.00000  -0.00060  -0.00060  -0.00260
   D16       -0.00389   0.00001   0.00000   0.00023   0.00023  -0.00365
   D17        3.14007   0.00001   0.00000   0.00054   0.00053   3.14060
   D18        0.00117   0.00000   0.00000  -0.00003  -0.00003   0.00114
   D19       -3.13978   0.00000   0.00000   0.00026   0.00026  -3.13952
   D20        3.14027   0.00000   0.00000  -0.00036  -0.00036   3.13991
   D21       -0.00068   0.00000   0.00000  -0.00007  -0.00007  -0.00075
   D22       -0.00027  -0.00001   0.00000  -0.00029  -0.00029  -0.00056
   D23        3.14059  -0.00001   0.00000  -0.00034  -0.00034   3.14025
   D24       -3.14103   0.00002   0.00000   0.00050   0.00049  -3.14053
   D25       -0.00016   0.00002   0.00000   0.00045   0.00045   0.00028
   D26        0.00106  -0.00000   0.00000   0.00004   0.00005   0.00110
   D27       -3.13980   0.00000   0.00000   0.00010   0.00010  -3.13970
   D28       -3.14118  -0.00001   0.00000  -0.00024  -0.00024  -3.14142
   D29        0.00115  -0.00000   0.00000  -0.00019  -0.00019   0.00096
   D30       -2.40197   0.00045   0.00000   0.00496   0.00491  -2.39706
   D31       -0.07714  -0.00016   0.00000   0.00229   0.00232  -0.07482
   D32        0.12809  -0.00005   0.00000  -0.00216  -0.00216   0.12593
   D33        1.90956   0.00005   0.00000   0.01398   0.01398   1.92354
         Item               Value     Threshold  Converged?
 Maximum Force            0.010433     0.000450     NO 
 RMS     Force            0.003509     0.000300     NO 
 Maximum Displacement     0.082344     0.001800     NO 
 RMS     Displacement     0.019002     0.001200     NO 
 Predicted change in Energy=-1.530015D-03
 Lowest energy point so far.  Saving SCF results.
 GradGradGradGradGradGradGradGradGradGradGradGradGradGradGradGradGradGrad

 Leave Link  103 at Thu Aug 26 23:57:42 2021, MaxMem= 17179869184 cpu:       116.8
 (Enter /public3/home/sc51754/softwares/g09e01/l202.exe)
                          Input orientation:                          
 ---------------------------------------------------------------------
 Center     Atomic      Atomic             Coordinates (Angstroms)
 Number     Number       Type             X           Y           Z
 ---------------------------------------------------------------------
      1          8           0        1.262165    1.380961    0.002447
      2          7           0        0.250963   -0.655678    0.010078
      3          6           0        0.213530    0.730157    0.004865
      4          6           0       -1.104823    1.277499    0.000797
      5          6           0       -0.832325   -1.453241    0.006556
      6          6           0       -2.202221    0.476384   -0.002157
      7          6           0       -2.081606   -0.924694    0.000052
      8          1           0        2.657829    0.285916   -0.043707
      9          1           0       -1.177670    2.364992   -0.002394
     10          1           0       -0.635157   -2.525897    0.007774
     11          1           0       -3.198060    0.925865   -0.007211
     12          1           0       -2.954812   -1.573782   -0.004034
     13          8           0        3.063957   -0.617600   -0.086559
     14          1           0        3.796200   -0.628304    0.545240
     15          1           0        1.201982   -1.056312    0.020186
 ---------------------------------------------------------------------
                    Distance matrix (angstroms):
                    1          2          3          4          5
     1  O    0.000000
     2  N    2.273870   0.000000
     3  C    1.234175   1.386350   0.000000
     4  C    2.369248   2.361231   1.427464   0.000000
     5  C    3.524146   1.345225   2.420959   2.744309   0.000000
     6  C    3.580538   2.701819   2.429054   1.358705   2.366462
     7  C    4.061632   2.348052   2.829524   2.409100   1.356506
     8  H    1.774580   2.585053   2.484815   3.891371   3.899790
     9  H    2.630805   3.341495   2.146666   1.089935   3.833829
    10  H    4.343201   2.069525   3.364842   3.832291   1.090627
    11  H    4.483393   3.794382   3.417220   2.122582   3.355151
    12  H    5.149121   3.334683   3.917475   3.398866   2.125934
    13  O    2.692327   2.814911   3.154321   4.580148   3.985972
    14  H    3.279193   3.585506   3.869489   5.286637   4.732224
    15  H    2.438081   1.032012   2.041750   3.281524   2.072714
                    6          7          8          9         10
     6  C    0.000000
     7  C    1.406262   0.000000
     8  H    4.863959   4.891803   0.000000
     9  H    2.148615   3.411619   4.362948   0.000000
    10  H    3.386662   2.157806   4.330438   4.920896   0.000000
    11  H    1.092591   2.161270   5.890866   2.480542   4.299227
    12  H    2.183936   1.088035   5.912850   4.321132   2.507481
    13  O    5.379271   5.155446   0.991523   5.185975   4.163404
    14  H    6.123809   5.910473   1.574339   5.830875   4.850428
    15  H    3.733398   3.286287   1.981199   4.167562   2.352639
                   11         12         13         14         15
    11  H    0.000000
    12  H    2.511457   0.000000
    13  O    6.449918   6.094807   0.000000
    14  H    7.186120   6.838991   0.967194   0.000000
    15  H    4.825987   4.188950   1.915936   2.681201   0.000000
 Stoichiometry    C5H7NO2
 Framework group  C1[X(C5H7NO2)]
 Deg. of freedom    39
 Full point group                 C1      NOp   1
 RotChk:  IX=0 Diff= 2.82D-03
 Largest Abelian subgroup         C1      NOp   1
 Largest concise Abelian subgroup C1      NOp   1
                         Standard orientation:                         
 ---------------------------------------------------------------------
 Center     Atomic      Atomic             Coordinates (Angstroms)
 Number     Number       Type             X           Y           Z
 ---------------------------------------------------------------------
      1          8           0        1.264621    1.379434    0.003923
      2          7           0        0.249514   -0.655266    0.010322
      3          6           0        0.214740    0.730640    0.005683
      4          6           0       -1.102560    1.280510    0.001367
      5          6           0       -0.835298   -1.450750    0.006067
      6          6           0       -2.201491    0.481501   -0.002327
      7          6           0       -2.083562   -0.919806   -0.000669
      8          1           0        2.658200    0.281736   -0.042186
      9          1           0       -1.173322    2.368142   -0.001389
     10          1           0       -0.640187   -2.523782    0.006901
     11          1           0       -3.196465    0.932892   -0.007553
     12          1           0       -2.958009   -1.567218   -0.005347
     13          8           0        3.062611   -0.622539   -0.085274
     14          1           0        3.794602   -0.634913    0.546787
     15          1           0        1.199760   -1.057727    0.020606
 ---------------------------------------------------------------------
 Rotational constants (GHZ):      4.0658091      1.4248550      1.0568963
 Leave Link  202 at Thu Aug 26 23:57:43 2021, MaxMem= 17179869184 cpu:         5.8
 (Enter /public3/home/sc51754/softwares/g09e01/l301.exe)
 Basis read from rwf:  (5D, 7F)
 No pseudopotential information found on rwf file.
 There are   385 symmetry adapted cartesian basis functions of A   symmetry.
 There are   338 symmetry adapted basis functions of A   symmetry.
   338 basis functions,   566 primitive gaussians,   385 cartesian basis functions
    30 alpha electrons       30 beta electrons
       nuclear repulsion energy       358.8755111887 Hartrees.
 IExCor=  205 DFT=T Ex=S Corr=VWN ExCW=0 ScaHFX=  0.000000
 ScaDFX=  1.000000  1.000000  1.000000  1.000000 ScalE2=  1.000000  1.000000
 IRadAn=      0 IRanWt=     -1 IRanGd=            0 ICorTp=0 IEmpDi=  4
 NAtoms=   15 NActive=   15 NUniq=   15 SFac= 1.00D+00 NAtFMM=   60 NAOKFM=F Big=F
 Integral buffers will be    131072 words long.
 Raffenetti 2 integral format.
 Two-electron integral symmetry is turned on.
 No density basis found on file   724.
 Leave Link  301 at Thu Aug 26 23:57:43 2021, MaxMem= 17179869184 cpu:         0.9
 (Enter /public3/home/sc51754/softwares/g09e01/l302.exe)
 NPDir=0 NMtPBC=     1 NCelOv=     1 NCel=       1 NClECP=     1 NCelD=      1
         NCelK=      1 NCelE2=     1 NClLst=     1 CellRange=     0.0.
 One-electron integrals computed using PRISM.
 NBasis=   338 RedAO= T EigKep=  1.54D-04  NBF=   338
 NBsUse=   338 1.00D-06 EigRej= -1.00D+00 NBFU=   338
 Precomputing XC quadrature grid using
 IXCGrd= 4 IRadAn=           0 IRanWt=          -1 IRanGd=           0 AccXCQ= 0.00D+00.
 Generated NRdTot=       0 NPtTot=           0 NUsed=           0 NTot=          32
 NSgBfM=   385   385   385   385   385 MxSgAt=    15 MxSgA2=    15.
 Leave Link  302 at Thu Aug 26 23:57:44 2021, MaxMem= 17179869184 cpu:        45.2
 (Enter /public3/home/sc51754/softwares/g09e01/l303.exe)
 DipDrv:  MaxL=1.
 Leave Link  303 at Thu Aug 26 23:57:44 2021, MaxMem= 17179869184 cpu:        16.0
 (Enter /public3/home/sc51754/softwares/g09e01/l401.exe)
 Initial guess from the checkpoint file:  "PY_H2O_SVWN_PC2_OPT_FREQ.chk"
 B after Tr=     0.000000    0.000000    0.000000
         Rot=    0.999999   -0.000060   -0.000057    0.001281 Ang=  -0.15 deg.
 Guess basis will be translated and rotated to current coordinates.
 JPrj=2 DoOrth=T DoCkMO=T.
 Generating alternative initial guess.
 ExpMin= 7.41D-02 ExpMax= 1.48D+04 ExpMxC= 5.05D+02 IAcc=2 IRadAn=         4 AccDes= 0.00D+00
 Harris functional with IExCor=  205 and IRadAn=       4 diagonalized for initial guess.
 HarFok:  IExCor=  205 AccDes= 0.00D+00 IRadAn=         4 IDoV= 1 UseB2=F ITyADJ=14
 ICtDFT=  3500011 ScaDFX=  1.000000  1.000000  1.000000  1.000000
 FoFCou: FMM=F IPFlag=           0 FMFlag=      100000 FMFlg1=           0
         NFxFlg=           0 DoJE=T BraDBF=F KetDBF=T FulRan=T
         wScrn=  0.000000 ICntrl=     500 IOpCl=  0 I1Cent=   200000004 NGrid=           0
         NMat0=    1 NMatS0=      1 NMatT0=    0 NMatD0=    1 NMtDS0=    0 NMtDT0=    0
 Petite list used in FoFCou.
 Harris En= -398.238503764624    
 Leave Link  401 at Thu Aug 26 23:57:45 2021, MaxMem= 17179869184 cpu:        68.6
 (Enter /public3/home/sc51754/softwares/g09e01/l502.exe)
 Closed shell SCF:
 Using DIIS extrapolation, IDIIS=  1040.
 Integral symmetry usage will be decided dynamically.
 Keep J ints in memory in canonical form, NReq=1670404686.
 IVT=      490665 IEndB=      490665 NGot= 17179869184 MDV= 15538220534
 LenX= 15538220534 LenY= 15538071868
 Requested convergence on RMS density matrix=1.00D-08 within 128 cycles.
 Requested convergence on MAX density matrix=1.00D-06.
 Requested convergence on             energy=1.00D-06.
 No special actions if energy rises.
 FoFCou: FMM=F IPFlag=           0 FMFlag=           0 FMFlg1=           0
         NFxFlg=           0 DoJE=F BraDBF=F KetDBF=F FulRan=T
         wScrn=  0.000000 ICntrl=     600 IOpCl=  0 I1Cent=           0 NGrid=           0
         NMat0=    1 NMatS0=  57291 NMatT0=    0 NMatD0=    1 NMtDS0=    0 NMtDT0=    0
 Symmetry not used in FoFCou.
 Integral accuracy reduced to 1.0D-05 until final iterations.

 Cycle   1  Pass 0  IDiag  1:
 E= -398.033117311681    
 DIIS: error= 1.22D-03 at cycle   1 NSaved=   1.
 NSaved= 1 IEnMin= 1 EnMin= -398.033117311681     IErMin= 1 ErrMin= 1.22D-03
 ErrMax= 1.22D-03  0.00D+00 EMaxC= 1.00D-01 BMatC= 6.95D-04 BMatP= 6.95D-04
 IDIUse=3 WtCom= 9.88D-01 WtEn= 1.22D-02
 Coeff-Com:  0.100D+01
 Coeff-En:   0.100D+01
 Coeff:      0.100D+01
 Gap=     0.503 Goal=   None    Shift=    0.000
 GapD=    0.503 DampG=2.000 DampE=1.000 DampFc=2.0000 IDamp=-1.
 RMSDP=9.94D-05 MaxDP=2.85D-03              OVMax= 1.21D-02

 Cycle   2  Pass 0  IDiag  1:
 E= -398.033545759563     Delta-E=       -0.000428447882 Rises=F Damp=F
 DIIS: error= 4.39D-04 at cycle   2 NSaved=   2.
 NSaved= 2 IEnMin= 2 EnMin= -398.033545759563     IErMin= 2 ErrMin= 4.39D-04
 ErrMax= 4.39D-04  0.00D+00 EMaxC= 1.00D-01 BMatC= 1.01D-04 BMatP= 6.95D-04
 IDIUse=3 WtCom= 9.96D-01 WtEn= 4.39D-03
 Coeff-Com:  0.184D+00 0.816D+00
 Coeff-En:   0.000D+00 0.100D+01
 Coeff:      0.183D+00 0.817D+00
 Gap=     0.123 Goal=   None    Shift=    0.000
 RMSDP=6.39D-05 MaxDP=2.63D-03 DE=-4.28D-04 OVMax= 1.48D-02

 Cycle   3  Pass 0  IDiag  1:
 E= -398.033336719821     Delta-E=        0.000209039742 Rises=F Damp=F
 DIIS: error= 1.03D-03 at cycle   3 NSaved=   3.
 NSaved= 3 IEnMin= 2 EnMin= -398.033545759563     IErMin= 2 ErrMin= 4.39D-04
 ErrMax= 1.03D-03  0.00D+00 EMaxC= 1.00D-01 BMatC= 3.24D-04 BMatP= 1.01D-04
 IDIUse=3 WtCom= 2.38D-01 WtEn= 7.62D-01
 Coeff-Com:  0.534D-01 0.625D+00 0.322D+00
 Coeff-En:   0.000D+00 0.709D+00 0.291D+00
 Coeff:      0.127D-01 0.689D+00 0.298D+00
 Gap=     0.125 Goal=   None    Shift=    0.000
 RMSDP=3.99D-05 MaxDP=2.02D-03 DE= 2.09D-04 OVMax= 9.90D-03

 Cycle   4  Pass 0  IDiag  1:
 E= -398.033624775004     Delta-E=       -0.000288055183 Rises=F Damp=F
 DIIS: error= 2.29D-04 at cycle   4 NSaved=   4.
[...]
    A5        2.08937  -0.00000   0.00000  -0.00009  -0.00009   2.08928
    A6        2.18752   0.00001   0.00000   0.00010   0.00010   2.18762
    A7        2.00629  -0.00000   0.00000  -0.00000  -0.00000   2.00629
    A8        2.10963  -0.00000   0.00000  -0.00006  -0.00006   2.10957
    A9        2.03788  -0.00000   0.00000   0.00003   0.00003   2.03791
   A10        2.13567   0.00000   0.00000   0.00003   0.00003   2.13570
   A11        2.10936  -0.00001   0.00000  -0.00005  -0.00005   2.10930
   A12        2.02690   0.00000   0.00000   0.00005   0.00005   2.02695
   A13        2.14693   0.00000   0.00000   0.00000   0.00000   2.14693
   A14        2.11440   0.00000   0.00000   0.00004   0.00004   2.11444
   A15        2.08481   0.00000   0.00000   0.00000   0.00000   2.08482
   A16        2.08397  -0.00000   0.00000  -0.00004  -0.00004   2.08393
   A17        2.05608  -0.00000   0.00000   0.00000   0.00000   2.05609
   A18        2.10052   0.00000   0.00000   0.00002   0.00002   2.10054
   A19        2.12659  -0.00000   0.00000  -0.00003  -0.00003   2.12656
   A20        2.71245  -0.00004   0.00000  -0.00141  -0.00141   2.71104
   A21        1.88672  -0.00000   0.00000  -0.00003  -0.00003   1.88669
   A22        1.41322   0.00000   0.00000   0.00043   0.00043   1.41365
   A23        2.25006  -0.00001   0.00000  -0.00134  -0.00134   2.24872
   A24        2.52222   0.00005   0.00000   0.00133   0.00133   2.52356
    D1        0.02190  -0.00000   0.00000  -0.00042  -0.00042   0.02147
    D2       -3.11801  -0.00000   0.00000  -0.00031  -0.00031  -3.11832
    D3        0.06316   0.00001   0.00000   0.00236   0.00236   0.06552
    D4       -3.13620   0.00000   0.00000   0.00013   0.00013  -3.13607
    D5        0.00388  -0.00000   0.00000   0.00003   0.00003   0.00391
    D6        0.01745  -0.00000   0.00000  -0.00020  -0.00020   0.01725
    D7       -3.12566  -0.00000   0.00000  -0.00030  -0.00030  -3.12596
    D8       -0.00130  -0.00000   0.00000  -0.00007  -0.00007  -0.00136
    D9        3.13776   0.00000   0.00000  -0.00003  -0.00003   3.13773
   D10        3.12694   0.00000   0.00000   0.00029   0.00029   3.12724
   D11       -0.01718   0.00000   0.00000   0.00033   0.00033  -0.01685
   D12       -0.13236   0.00000   0.00000   0.00019   0.00019  -0.13216
   D13        3.02115  -0.00000   0.00000  -0.00013  -0.00013   3.02102
   D14        3.13604  -0.00000   0.00000  -0.00009  -0.00009   3.13594
   D15       -0.00239  -0.00000   0.00000  -0.00009  -0.00009  -0.00248
   D16       -0.00394   0.00000   0.00000   0.00002   0.00002  -0.00393
   D17        3.14082   0.00000   0.00000   0.00002   0.00002   3.14084
   D18        0.00160  -0.00000   0.00000  -0.00002  -0.00002   0.00158
   D19       -3.13905  -0.00000   0.00000  -0.00002  -0.00002  -3.13906
   D20        3.13985  -0.00000   0.00000  -0.00003  -0.00003   3.13982
   D21       -0.00080  -0.00000   0.00000  -0.00002  -0.00002  -0.00082
   D22       -0.00137   0.00000   0.00000   0.00006   0.00006  -0.00131
   D23        3.13947   0.00000   0.00000   0.00004   0.00004   3.13951
   D24       -3.14024   0.00000   0.00000   0.00002   0.00002  -3.14023
   D25        0.00059   0.00000   0.00000   0.00000   0.00000   0.00060
   D26        0.00116  -0.00000   0.00000  -0.00001  -0.00001   0.00114
   D27       -3.13967   0.00000   0.00000   0.00000   0.00000  -3.13966
   D28       -3.14138  -0.00000   0.00000  -0.00002  -0.00002  -3.14140
   D29        0.00099   0.00000   0.00000  -0.00000  -0.00000   0.00098
   D30       -2.34339   0.00000   0.00000  -0.00071  -0.00071  -2.34410
   D31       -0.10731  -0.00000   0.00000  -0.00200  -0.00200  -0.10931
   D32        0.15105   0.00000   0.00000   0.00057   0.00057   0.15161
   D33        2.00151   0.00000   0.00000   0.00079   0.00079   2.00230
         Item               Value     Threshold  Converged?
 Maximum Force            0.000046     0.000450     YES
 RMS     Force            0.000012     0.000300     YES
 Maximum Displacement     0.003151     0.001800     NO 
 RMS     Displacement     0.000588     0.001200     YES
 Predicted change in Energy=-1.645781D-07
 GradGradGradGradGradGradGradGradGradGradGradGradGradGradGradGradGradGrad

 Leave Link  103 at Fri Aug 27 00:03:43 2021, MaxMem= 17179869184 cpu:        95.9
 (Enter /public3/home/sc51754/softwares/g09e01/l9999.exe)
 1\1\GINC-T1413\Freq\RSVWN\Gen\C5H7N1O2\SC51754\27-Aug-2021\0\\#P Geom=
 AllCheck Guess=TCheck SCRF=Check GenChk RSVWN/ChkBas Freq\\PY_H2O_SVWN
 _PC2_OPT_FREQ\\0,1\O,1.3090363286,1.3721040968,-0.0136943016\N,0.29521
 36602,-0.6615798005,0.0004828002\C,0.248510082,0.7183891215,-0.0040952
 317\C,-1.0593542647,1.2739412996,0.0009577682\C,-0.7840401491,-1.45449
 23283,0.0047420043\C,-2.1598782809,0.4710529507,0.0050442576\C,-2.0384
 615578,-0.9261869547,0.0063242619\H,2.4766168881,0.332538646,-0.050818
 4539\H,-1.1306174459,2.361771749,-0.0017100806\H,-0.5913267909,-2.5286
 286045,0.0043203692\H,-3.1548760995,0.9231663105,0.0064711445\H,-2.909
 8149525,-1.5782964071,0.0077984685\O,2.8889515729,-0.6044460153,-0.099
 4541466\H,3.5819496509,-0.6632834499,0.5734925027\H,1.2880443585,-1.02
 97846138,0.0120726376\\Version=EM64L-G09RevE.01\State=1-A\HF=-398.0366
 517\RMSD=5.311e-09\RMSF=2.603e-05\ZeroPoint=0.1159343\Thermal=0.123477
 7\Dipole=-0.9530596,-0.8351637,0.4870753\DipoleDeriv=-1.7312376,-0.437
 9817,-0.0007262,-0.3308989,-0.7717514,0.0002601,-0.0017357,-0.0002188,
 -0.3590009,-0.9556423,0.2326029,0.0028113,-0.5257718,-0.4630735,0.0033
 226,-0.023304,0.000549,-0.1222884,1.654979,0.6944904,-0.0044189,0.7497
 21,0.7023259,-0.0020707,-0.0132936,-0.0102889,0.1969089,-0.6320163,-0.
 3806735,0.0000186,0.1010873,0.0011393,-0.0013259,0.0107468,0.0006252,-
 0.163702,0.6025634,-0.2866892,-0.0013376,0.2582763,0.1001522,0.0016339
 ,-0.0025436,0.0037846,-0.0243002,0.2171488,0.085645,-0.0005012,0.11238
 6,0.4791185,-0.0005577,-0.0032034,-0.002113,-0.0914146,-0.2644361,0.29
 33092,-0.0002715,0.009783,-0.4209841,0.0005984,0.0062269,0.0006967,-0.
 1906134,0.896574,-0.257474,-0.0231814,-0.6866183,0.4909931,-0.0384034,
 -0.0389907,-0.0239049,0.2012945,0.0740115,-0.0152829,0.0000898,0.00353
 75,0.0118489,0.0001336,0.000643,0.0006209,0.1486191,0.0732141,0.017284
 1,-0.0003396,-0.0094488,-0.0059303,0.0007104,-0.0026759,-0.0006442,0.1
 412997,-0.0280572,0.0544439,0.0002743,0.0541207,0.0698254,-0.0001067,-
 0.0012716,0.0001363,0.1289977,0.0309394,-0.0463146,0.0001905,-0.045546
 7,0.0322567,0.0002531,0.0000219,0.0001211,0.1610039,-1.276976,0.179328
 5,0.0832385,0.4325519,-0.6833631,0.0728767,0.1243263,0.0314826,-0.4697
 212,0.2773513,0.003079,-0.062603,-0.0518205,0.2834088,-0.0408707,-0.06
 75826,-0.0116863,0.2374939,1.061584,-0.1357671,0.0067564,-0.0713588,0.
 1740335,0.0035463,0.012636,0.0108397,0.205423\Polar=106.0360361,4.8974
 201,86.3349304,0.8257561,-0.4345255,44.7778847\PG=C01 [X(C5H7N1O2)]\NI
 mag=0\\0.51378658,0.24162100,0.28854737,-0.00414146,-0.00301024,0.0394
 6782,0.01489059,-0.06199142,0.00047592,0.79210655,-0.04125098,-0.06105
 582,0.00051997,0.04712006,0.63806260,0.00111254,0.00043907,0.01684077,
 0.00181095,-0.00288194,0.09476656,-0.43312972,-0.19698490,0.00296154,-
 0.16134089,0.01322176,-0.00094054,0.84680169,-0.19205132,-0.21370122,0
 .00193026,0.04831342,-0.21787781,-0.00004729,0.09726543,0.61251838,0.0
 0274243,0.00162487,-0.06850803,-0.00011968,0.00030210,-0.06525740,-0.0
 0342323,-0.00188405,0.19222847,-0.07307679,-0.00238770,0.00070010,0.02
 321252,0.04880950,0.00010774,-0.22339822,0.05510138,0.00038190,0.67109
 618,-0.02759373,0.02064418,0.00022092,0.03674214,-0.02570727,0.0001016
 9,0.08369146,-0.14837551,-0.00038550,0.06349258,0.73784717,0.00060159,
 0.00051447,0.01837309,-0.00027718,-0.00005482,0.00797865,0.00064566,-0
 .00045415,-0.07497704,-0.00220595,-0.00144053,0.11161955,-0.01329177,0
 .01218849,-0.00008318,-0.28481680,-0.09126253,0.00052984,0.04287880,-0
 .06793362,0.00007573,-0.04606282,-0.00391834,0.00015362,0.73985239,-0.
 00350341,-0.00166909,0.00002304,-0.12711347,-0.21707989,0.00104089,-0.
 01945819,-0.04229230,0.00015369,-0.00486479,-0.00011219,0.00004959,-0.
 04638076,0.74336154,0.00001912,0.00003052,0.00585296,0.00069200,0.0007
 3172,-0.04905821,-0.00009216,0.00034263,-0.00161315,0.00012028,0.00002
 370,-0.00121696,-0.00093853,-0.00069786,0.13511394,0.00283868,0.004283
 53,-0.00005104,-0.00750996,-0.00969705,-0.00003464,-0.04410074,-0.0062
 7507,0.00015895,-0.31423951,-0.15883937,0.00102918,0.01196848,0.033456
 79,-0.00003925,0.73428813,0.01905993,-0.00478319,-0.00008156,-0.032641
 93,-0.03662134,0.00010130,-0.02771488,0.05270243,0.00004072,-0.1190441
 8,-0.22041140,0.00067225,0.06931365,-0.02174614,-0.00015447,0.01335019
 ,0.66636849,-0.00001921,-0.00002212,0.00404413,0.00012131,0.00008620,-
 0.00588929,0.00016764,-0.00005074,0.00110833,0.00079795,0.00064849,-0.
 05252288,-0.00012633,-0.00001689,0.00833441,-0.00147597,-0.00077893,0.
 13360130,0.00594967,-0.00596172,0.00000482,-0.07538132,-0.02904160,0.0
 0015313,-0.01896258,0.03362478,-0.00003069,0.03118562,-0.02522798,-0.0
 0005662,-0.35229128,0.12594477,0.00026733,-0.11584601,-0.00516685,0.00
 014144,0.75617537,-0.01268422,0.00135034,0.00003969,0.00195112,0.04072
 072,-0.00011178,0.02345781,-0.02766397,-0.00003211,-0.04689770,-0.0364
 2520,0.00014746,0.08528249,-0.16263800,0.00003687,0.04146917,-0.312404
 66,0.00019721,0.02274542,0.66350991,-0.00002324,0.00008386,-0.00040736
 ,0.00012363,-0.00001671,0.01326120,0.00004069,-0.00008649,-0.00810072,
 0.00001497,0.00006230,0.00719124,0.00029208,-0.00001432,-0.06180715,0.
 00007875,0.00022269,-0.05826127,-0.00097360,-0.00052723,0.11058549,0.0
 1853013,-0.00817045,-0.00170693,-0.00528280,0.00906420,-0.00082952,-0.
 03155994,-0.01518398,0.00052083,0.00719897,0.00176904,0.00021038,0.001
 06829,0.00094061,-0.00002685,-0.00073209,-0.00327761,0.00000747,-0.000
 40123,0.00258000,0.00007916,0.08100307,-0.02940552,-0.01558021,0.00171
 176,0.00627345,-0.00810474,0.00096544,0.01891811,0.02825834,-0.0002915
 7,-0.01004136,-0.00361970,-0.00021885,-0.00299527,-0.00360637,-0.00002
 684,0.00088057,0.00531194,-0.00001296,0.00208610,-0.00361768,-0.000084
 58,-0.06667537,0.26017517,-0.00007276,-0.00014336,-0.01557718,-0.00105
 061,-0.00027989,-0.00102660,0.00003509,-0.00005164,0.00102690,0.000016
 46,-0.00001085,0.00206175,0.00002147,0.00019381,-0.00041443,-0.0000647
 2,-0.00008930,0.00021468,-0.00015477,0.00003993,0.00021263,0.01265758,
 0.01316000,0.04797659,0.00226910,-0.00258747,-0.00003071,-0.00581181,0
 .00329692,-0.00000949,0.00334667,0.02797474,-0.00008411,-0.05271036,0.
 02143482,0.00006487,-0.00180770,-0.00082164,0.00000231,0.00533712,-0.0
 2498620,0.00005086,-0.00329344,-0.00249539,0.00004341,-0.00043271,0.00
 053916,-0.00000664,0.05085132,-0.00048711,0.00121810,-0.00000369,0.002
 41424,-0.00055230,0.00001626,-0.00302927,-0.00955457,0.00007127,0.0231
 5190,-0.32838806,0.00065810,0.00079800,0.00100386,-0.00000264,0.002670
 59,-0.01160536,0.00003060,-0.00319103,0.00128809,0.00003509,0.00018952
 ,-0.00019942,0.00000413,-0.02230403,0.34669215,-0.00000639,-0.00001921
 ,-0.00247400,0.00003478,0.00000328,0.00465918,-0.00001897,-0.00004735,
 0.00300006,0.00004753,0.00076150,-0.03151577,0.00001420,0.00000755,-0.
 00064747,-0.00003379,0.00006406,0.00203493,0.00002521,0.00000824,0.008
 70135,-0.00002369,0.00001496,-0.00008859,-0.00003817,-0.00075873,0.022
 38414,-0.00111199,-0.00181230,0.00001884,0.00397073,-0.03264258,0.0000
 2459,-0.00287477,0.00068394,0.00002134,-0.00032204,-0.00062120,0.00000
 059,-0.06406785,0.05581750,0.00004545,-0.00517430,0.00143676,0.0000129
 0,0.00199775,0.02577661,-0.00000110,0.00058522,-0.00055854,0.00000375,
 0.00011418,0.00001927,-0.00000480,0.06517989,-0.00053820,-0.00168408,0
 .00003151,-0.00061695,-0.01975788,-0.00000126,-0.00250226,0.00458479,-
 0.00004879,0.00036063,0.00057383,-0.00000563,0.05033469,-0.31555693,-0
 .00001196,0.00224345,0.00049070,0.00000012,-0.00048897,-0.00529068,-0.
 00001300,0.00032563,-0.00027097,-0.00001154,0.00003078,-0.00008866,-0.
 00000122,-0.04934039,0.33631143,0.00001880,-0.00001762,-0.00023381,0.0
 0011525,0.00025152,0.00189372,0.00000374,-0.00001879,0.00640947,0.0000
 3201,0.00001927,-0.00021980,-0.00004367,-0.00026997,-0.03519175,-0.000
 01837,0.00000147,0.00706196,0.00004449,-0.00000317,0.00586323,-0.00005
 893,0.00004382,-0.00007945,-0.00000848,-0.00000197,-0.00124545,-0.0000
 7940,0.00004583,0.02287108,-0.00193546,0.00037344,0.00001688,0.0003135
 3,-0.00048726,0.00000360,-0.00021055,-0.00368781,0.00001442,-0.0188937
 7,0.01113528,0.00001871,0.00152782,0.00042569,0.00000427,-0.27488928,0
 .10162663,0.00037770,0.00109847,-0.00087157,-0.00000986,0.00030931,-0.
 00041364,-0.00001381,0.00113150,-0.00002542,-0.00000977,-0.00000388,-0
 .00011457,0.00000138,0.29128967,-0.00084674,0.00045769,0.00000515,-0.0
 0112686,-0.00002159,0.00000080,-0.00278282,-0.00201128,0.00002970,-0.0
 1721742,0.01046322,0.00002434,0.00006982,-0.00602201,0.00001445,0.1018
 9985,-0.09926799,-0.00013250,0.02712157,-0.00763651,-0.00004536,0.0000
 6157,-0.00015231,-0.00000395,0.00034129,0.00074925,-0.00001104,0.00136
 043,-0.00036263,0.00000305,-0.10846597,0.10244374,-0.00000938,-0.00006
 549,-0.00180653,0.00002021,-0.00000457,-0.00110815,0.00002929,0.000049
 38,0.01094261,0.00013258,0.00003572,0.00585134,0.00000986,-0.00001100,
 0.00526953,0.00029489,-0.00015679,-0.03902378,-0.00002591,0.00002855,0
 .00409157,-0.00003533,0.00003910,-0.00025871,-0.00002283,-0.00002397,-
 0.00506414,-0.00000291,0.00000294,-0.00037488,-0.00041229,0.00011896,0
 .02457953,0.00042028,-0.00013722,0.00000119,-0.00376091,0.00381608,-0.
 00000449,-0.00022436,0.00090929,-0.00001687,0.00105136,0.00142400,0.00
 000138,-0.01659071,-0.01869199,0.00000801,0.00669272,0.00402677,-0.000
 02377,-0.23321158,-0.13404835,0.00038411,-0.00005763,0.00025023,-0.000
 02382,0.00019368,0.00028529,-0.00000108,0.00076039,0.00003634,-0.00000
 038,0.00045490,-0.00038978,0.00000142,0.24437349,-0.00034632,0.0004696
 3,0.00000164,0.00382360,-0.00006499,0.00001135,0.00108218,-0.00126550,
 -0.00000351,0.00205550,-0.00448846,0.00000640,0.01088487,0.01008837,-0
 .00003136,-0.02405922,-0.01227810,0.00003181,-0.13604144,-0.15192932,0
 .00025820,0.00007811,-0.00018792,0.00000865,-0.00109099,-0.00045949,0.
 00000355,-0.00045717,0.00047173,-0.00000250,0.00016860,0.00119779,0.00
 000014,0.14364059,0.15782980,0.00001234,-0.00003275,-0.00064185,-0.000
 02138,-0.00002398,0.00745655,-0.00001785,0.00002233,-0.00034984,0.0000
 0858,0.00001304,0.00462277,0.00003048,0.00000092,-0.00122405,0.0000214
 1,0.00002912,-0.00016126,0.00033497,0.00021908,-0.02652132,0.00001000,
 -0.00000649,0.00001783,-0.00000059,0.00000404,0.00054071,-0.00000420,0
 .00000092,-0.00406493,-0.00000263,-0.00000152,-0.00248385,-0.00037651,
 -0.00026823,0.02157285,-0.01772565,0.02217540,0.00056423,-0.03269540,-
 0.00519303,-0.00115426,0.00380457,0.00157176,0.00025379,-0.00118633,0.
 00007826,0.00012893,0.00076743,0.00697063,-0.00011242,-0.00035216,-0.0
 0045627,-0.00004845,-0.00296358,-0.00079445,0.00016534,-0.06996347,0.1
 0615117,-0.00188041,-0.00012627,0.00009696,0.00001214,-0.00016301,-0.0
 0047794,-0.00005952,-0.00021461,-0.00001575,-0.00002007,-0.00055397,0.
 00021532,0.00002800,0.37575626,0.04558075,-0.01439462,0.00087188,-0.00
 694568,0.01099527,-0.00226019,-0.01865423,-0.02207377,0.00032663,0.007
 32803,0.00344625,-0.00022548,0.00277241,0.00206328,-0.00009022,-0.0005
 1069,-0.00389605,0.00001801,-0.00143387,0.00277434,0.00011684,0.066230
 66,-0.25763528,-0.03992046,-0.00059644,0.00022464,-0.00002277,0.000632
 04,0.00020892,-0.00001254,0.00032136,0.00013783,0.00003450,-0.00012897
 ,0.00014064,0.00005041,-0.14041189,0.32352914,-0.00118169,0.00225789,0
 .00906104,-0.00576103,0.00017296,0.00606144,0.00074393,-0.00056419,-0.
 00042640,-0.00014775,0.00011637,-0.00127948,-0.00026714,0.00048205,0.0
 0053125,0.00012361,-0.00001514,0.00009998,-0.00009287,-0.00022107,-0.0
 0052060,-0.01231222,-0.01220630,-0.03550825,0.00001287,0.00000249,0.00
 003278,-0.00001538,-0.00012450,0.00011849,0.00001065,0.00001082,0.0001
 6459,-0.00006120,0.00000114,-0.00012783,0.25681776,0.00725760,0.280327
 29,0.00092643,0.00149494,0.00129116,-0.00287442,-0.00094971,0.00128296
 ,-0.00065525,-0.00076901,-0.00026033,0.00013433,0.00014179,-0.00030927
 ,-0.00038793,0.00062376,0.00008010,0.00003950,-0.00012722,0.00003568,-
 0.00014806,-0.00016520,-0.00011968,-0.01007296,-0.00425074,-0.01144884
 ,0.00000226,0.00003116,-0.00000219,-0.00004027,-0.00010516,0.00002600,
 0.00000935,-0.00000207,0.00004174,-0.00005555,0.00002648,-0.00002523,-
 0.26106445,0.03633162,-0.24342500,0.27339638,0.00369353,-0.00382023,-0
 .00219514,-0.00435887,0.00104347,0.00106515,-0.00141358,-0.00153947,-0
 .00008276,0.00030849,0.00022635,0.00029570,0.00021008,0.00082021,0.000
 01310,-0.00001296,-0.00018493,-0.00000547,-0.00037515,-0.00003238,-0.0
 0003230,0.02147963,0.00505179,0.02602293,-0.00005765,0.00003344,0.0000
 0183,-0.00001023,-0.00007528,-0.00003273,0.00000924,0.00000159,-0.0000
 4568,-0.00007250,0.00003143,-0.00002117,0.00951191,-0.03595215,0.00104
 458,-0.03403288,0.03431360,0.00136456,-0.00163151,0.00008537,0.0051630
 0,-0.00010736,0.00016396,-0.00027702,0.00033901,-0.00005389,0.00004025
 ,-0.00006841,-0.00006452,0.00012198,-0.00056484,-0.00000918,0.00001134
 ,0.00008341,-0.00000041,0.00024857,0.00009704,-0.00002704,0.00083815,-
 0.00246764,-0.00128412,0.00001120,-0.00000619,0.00001483,-0.00000657,0
 .00009178,0.00005429,0.00000483,-0.00000506,0.00001889,0.00006834,-0.0
 0001091,0.00000451,-0.25823930,0.02832404,-0.24778402,0.25572481,-0.02
 306641,0.24873851,-0.01934009,-0.00210364,-0.00002135,-0.25501962,0.08
 519621,-0.00205243,0.01962528,0.02045608,-0.00023449,-0.00398913,-0.00
 370875,-0.00000588,-0.01874635,-0.00334549,-0.00002965,0.00167943,0.00
 460120,-0.00001922,0.00609221,-0.00530576,-0.00009467,0.00980785,-0.02
 075836,0.00198203,0.00093647,-0.00062008,0.00000500,0.00114996,0.00085
 292,0.00002708,0.00001300,-0.00000712,-0.00000123,0.00050789,0.0000198
 9,0.00000263,0.00668067,0.00948490,0.00555546,0.00079064,0.00512092,-0
 .00507413,0.24981180,-0.00124767,0.00400115,-0.00006519,0.08815713,-0.
 10397844,0.00156051,0.03490338,-0.01170854,0.00017932,-0.00015487,-0.0
 0567320,0.00003115,-0.01936399,0.01338567,-0.00017763,-0.00085977,-0.0
 0167440,0.00000719,-0.00459402,-0.00200500,0.00004101,-0.00941156,-0.0
 0582265,0.00108151,0.00132210,-0.00036166,-0.00000465,-0.00028415,0.00
 044572,-0.00000566,0.00000600,0.00002321,-0.00000178,-0.00091982,0.000
 44439,0.00001427,0.00057793,-0.00956843,0.00178531,0.00175225,0.000082
 55,-0.00100694,-0.08988292,0.12240962,-0.00041725,-0.00000839,-0.00407
 640,-0.00132718,0.00130152,-0.03074238,0.00014220,0.00052110,0.0045706
 5,-0.00004664,-0.00009770,0.00409806,0.00020961,-0.00037665,-0.0039197
 4,-0.00000032,0.00006117,-0.00064085,0.00011451,0.00008129,0.00573873,
 0.00066990,-0.00061985,0.00272696,0.00001550,-0.00002478,-0.00033256,-
 0.00001312,0.00004479,-0.00286215,-0.00000407,-0.00000785,-0.00079803,
 0.00004367,-0.00000636,0.00135970,0.00354424,0.00553175,-0.01075028,-0
 .00289190,-0.00296162,0.00014282,-0.00003914,-0.00343841,0.03548546\\0
 .00003891,0.00000821,0.00001848,0.00007524,0.00004266,-0.00000706,-0.0
 0002019,-0.00000808,-0.00001498,0.00000775,0.00001423,0.00000314,-0.00
 001067,-0.00001972,0.00000659,-0.00001633,0.00000733,0.00000148,-0.000
 00693,-0.00001007,0.00000230,-0.00006628,0.00002020,-0.00003399,-0.000
 00173,-0.00000856,-0.00000144,-0.00000225,0.00000830,0.00000095,0.0000
 0844,-0.00000132,0.00000039,0.00000657,0.00000342,0.00000280,0.0000585
 7,0.00000279,0.00003369,-0.00000593,0.00000132,-0.00001585,-0.00006516
 ,-0.00006071,0.00000351\\\@


 A MAN THINKING OR WORKING IS ALWAYS ALONE, 
 LET HIM BE WHERE HE WILL.

                                    -- THOREAU
 Job cpu time:       0 days  0 hours 49 minutes 17.9 seconds.
 File lengths (MBytes):  RWF=    137 Int=      0 D2E=      0 Chk=      9 Scr=      1
 Normal termination of Gaussian 09 at Fri Aug 27 00:03:43 2021.
