 Entering Gaussian System, Link 0=g09
 AtFile(1): pc-2.gbs
            -H     0
            S    4   1.00
                  0.754230D+02           0.240650D-02
                  0.113500D+02           0.184870D-01
                  0.259930D+01           0.897420D-01
                  0.735130D+00           0.281110D+00
            S    1   1.00
                  0.231670D+00           0.100000D+01
            S    1   1.00
                  0.741470D-01           0.100000D+01
            P    1   1.00
                  0.160000D+01           0.100000D+01
            P    1   1.00
                  0.450000D+00           0.100000D+01
            D    1   1.00
                  0.125000D+01           0.100000D+01
            ****
            -C     0
            S    7   1.00
                  0.785710D+04           0.568250D-03
                  0.117870D+04           0.439150D-02
                  0.268320D+03           0.225040D-01
                  0.759480D+02           0.866530D-01
                  0.245590D+02           0.244050D+00
                  0.862120D+01           0.441480D+00
                  0.312780D+01           0.353320D+00
            S    7   1.00
                  0.117870D+04          -0.594920D-06
                  0.268320D+03          -0.627480D-04
                  0.759480D+02          -0.757730D-03
                  0.245590D+02          -0.733080D-02
                  0.862120D+01          -0.389320D-01
                  0.312780D+01          -0.889080D-01
                  0.822020D+00           0.216890D+00
            S    1   1.00
                  0.330170D+00           0.100000D+01
            S    1   1.00
                  0.114630D+00           0.100000D+01
            P    4   1.00
                  0.337750D+02           0.602940D-02
                  0.767660D+01           0.432280D-01
                  0.223570D+01           0.163010D+00
                  0.764470D+00           0.365040D+00
            P    1   1.00
                  0.262320D+00           0.100000D+01
            P    1   1.00
                  0.846380D-01           0.100000D+01
            D    1   1.00
                  0.140000D+01           0.100000D+01
            D    1   1.00
                  0.450000D+00           0.100000D+01
            F    1   1.00
                  0.950000D+00           0.100000D+01
            ****
            -N     0
            S    7   1.00
                  0.111010D+05           0.545700D-03
                  0.166530D+04           0.421810D-02
                  0.379080D+03           0.216450D-01
                  0.107300D+03           0.837760D-01
                  0.347470D+02           0.238810D+00
                  0.122490D+02           0.439940D+00
                  0.447430D+01           0.363640D+00
            S    7   1.00
                  0.166530D+04          -0.150060D-05
                  0.379080D+03          -0.587530D-04
                  0.107300D+03          -0.774530D-03
                  0.347470D+02          -0.721610D-02
                  0.122490D+02          -0.393380D-01
                  0.447430D+01          -0.906110D-01
                  0.124040D+01           0.198820D+00
            S    1   1.00
                  0.487430D+00           0.100000D+01
            S    1   1.00
                  0.164840D+00           0.100000D+01
            P    4   1.00
                  0.479340D+02           0.617060D-02
                  0.109990D+02           0.442600D-01
                  0.324720D+01           0.168250D+00
                  0.111140D+01           0.368480D+00
            P    1   1.00
                  0.379880D+00           0.100000D+01
            P    1   1.00
                  0.120680D+00           0.100000D+01
            D    1   1.00
                  0.180000D+01           0.100000D+01
            D    1   1.00
                  0.550000D+00           0.100000D+01
            F    1   1.00
                  0.102000D+01           0.100000D+01
            ****
            -O     0
            S    7   1.00
                  0.147820D+05           0.535190D-03
                  0.221730D+04           0.413750D-02
                  0.504740D+03           0.212450D-01
                  0.142870D+03           0.824530D-01
                  0.463000D+02           0.236710D+00
                  0.163370D+02           0.440390D+00
                  0.598280D+01           0.364650D+00
            S    7   1.00
                  0.221730D+04          -0.192750D-05
                  0.504740D+03          -0.579640D-04
                  0.142870D+03          -0.794940D-03
                  0.463000D+02          -0.731250D-02
                  0.163370D+02          -0.405740D-01
                  0.598280D+01          -0.915940D-01
                  0.167180D+01           0.209400D+00
            S    1   1.00
                  0.646620D+00           0.100000D+01
            S    1   1.00
                  0.216690D+00           0.100000D+01
            P    4   1.00
                  0.604240D+02           0.689490D-02
                  0.139350D+02           0.490050D-01
                  0.415310D+01           0.182550D+00
                  0.141580D+01           0.376330D+00
            P    1   1.00
                  0.475490D+00           0.100000D+01
            P    1   1.00
                  0.145290D+00           0.100000D+01
            D    1   1.00
                  0.220000D+01           0.100000D+01
            D    1   1.00
                  0.650000D+00           0.100000D+01
            F    1   1.00
                  0.110000D+01           0.100000D+01
            ****
 Initial command:
 /public3/home/sc51754/softwares/g09e01/l1.exe "./Gau-161786.inp" -scrdir="./"
 Entering Link 1 = /public3/home/sc51754/softwares/g09e01/l1.exe PID=    161788.
  
 Copyright (c) 1988,1990,1992,1993,1995,1998,2003,2009,2015,
            Gaussian, Inc.  All Rights Reserved.
  
 This is part of the Gaussian(R) 09 program.  It is based on
 the Gaussian(R) 03 system (copyright 2003, Gaussian, Inc.),
 the Gaussian(R) 98 system (copyright 1998, Gaussian, Inc.),
 the Gaussian(R) 94 system (copyright 1995, Gaussian, Inc.),
 the Gaussian 92(TM) system (copyright 1992, Gaussian, Inc.),
 the Gaussian 90(TM) system (copyright 1990, Gaussian, Inc.),
 the Gaussian 88(TM) system (copyright 1988, Gaussian, Inc.),
 the Gaussian 86(TM) system (copyright 1986, Carnegie Mellon
 University), and the Gaussian 82(TM) system (copyright 1983,
 Carnegie Mellon University). Gaussian is a federally registered
 trademark of Gaussian, Inc.
  
 This software contains proprietary and confidential information,
 including trade secrets, belonging to Gaussian, Inc.
  
 This software is provided under written license and may be
 used, copied, transmitted, or stored only in accord with that
 written license.
  
 The following legend is applicable only to US Government
 contracts under FAR:
  
                    RESTRICTED RIGHTS LEGEND
  
 Use, reproduction and disclosure by the US Government is
 subject to restrictions as set forth in subparagraphs (a)
 and (c) of the Commercial Computer Software - Restricted
 Rights clause in FAR 52.227-19.
  
 Gaussian, Inc.
 340 Quinnipiac St., Bldg. 40, Wallingford CT 06492
  
  
 ---------------------------------------------------------------
 Warning -- This program may not be used in any manner that
 competes with the business of Gaussian, Inc. or will provide
 assistance to any competitor of Gaussian, Inc.  The licensee
 of this program is prohibited from giving any competitor of
 Gaussian, Inc. access to this program.  By using this program,
 the user acknowledges that Gaussian, Inc. is engaged in the
 business of creating and licensing software in the field of
 computational chemistry and represents and warrants to the
 licensee that it is not a competitor of Gaussian, Inc. and that
 it will not use this program in any manner prohibited above.
 ---------------------------------------------------------------
  

 Cite this work as:
 Gaussian 09, Revision E.01,
 M. J. Frisch, G. W. Trucks, H. B. Schlegel, G. E. Scuseria, 
 M. A. Robb, J. R. Cheeseman, G. Scalmani, V. Barone, B. Mennucci, 
 G. A. Petersson, H. Nakatsuji, M. Caricato, X. Li, H. P. Hratchian, 
 A. F. Izmaylov, J. Bloino, G. Zheng, J. L. Sonnenberg, M. Hada, 
 M. Ehara, K. Toyota, R. Fukuda, J. Hasegawa, M. Ishida, T. Nakajima, 
 Y. Honda, O. Kitao, H. Nakai, T. Vreven, J. A. Montgomery, Jr., 
 J. E. Peralta, F. Ogliaro, M. Bearpark, J. J. Heyd, E. Brothers, 
 K. N. Kudin, V. N. Staroverov, T. Keith, R. Kobayashi, J. Normand, 
 K. Raghavachari, A. Rendell, J. C. Burant, S. S. Iyengar, J. Tomasi, 
 M. Cossi, N. Rega, J. M. Millam, M. Klene, J. E. Knox, J. B. Cross, 
 V. Bakken, C. Adamo, J. Jaramillo, R. Gomperts, R. E. Stratmann, 
 O. Yazyev, A. J. Austin, R. Cammi, C. Pomelli, J. W. Ochterski, 
 R. L. Martin, K. Morokuma, V. G. Zakrzewski, G. A. Voth, 
 P. Salvador, J. J. Dannenberg, S. Dapprich, A. D. Daniels, 
 O. Farkas, J. B. Foresman, J. V. Ortiz, J. Cioslowski, 
 and D. J. Fox, Gaussian, Inc., Wallingford CT, 2013.
 
 ******************************************
 Gaussian 09:  EM64L-G09RevE.01 30-Nov-2015
                29-Aug-2021 
 ******************************************
 %nprocshared=64
 Will use up to   64 processors via shared memory.
 %mem=128GB
 %chk=TST_H2O_SVWN.chk
 ----------------------------------------------------------------------
 #p opt=(calcfc,qst3,maxcycle=200,cartesian) freq SVWN/gen geom=connect
 ivity int=acc2e=12 scf=(novaracc,noincfock)
 ----------------------------------------------------------------------
 1/5=1,6=200,10=4,14=-1,18=20,26=3,27=203,38=1,57=2/1,3;
 2/9=110,12=2,17=6,18=5,40=1/2;
 3/5=7,11=2,16=1,25=1,30=1,71=2,74=205,140=1/1,2,3;
 4//1;
 5/5=100002,38=1,87=12/2;
 8/6=4,10=90,11=11,87=12/1;
 11/6=1,8=1,9=11,15=111,16=1,87=12/1,2,10;
 10/6=1,13=1,87=12/2;
 6/7=2,8=2,9=2,10=2,28=1/1;
 7/10=1,18=20,25=1,87=12/1,2,3,16;
 1/5=1,6=200,10=4,14=-1,18=20,26=3,27=203/3(2);
 2/9=110/2;
 99//99;
 2/9=110/2;
 3/5=7,6=1,11=2,16=1,25=1,30=1,71=1,74=205,82=7/1,2,3;
 4/5=5,16=3,69=1/1;
 5/5=100002,38=1,87=12/2;
 7/87=12/1,2,3,16;
 1/5=1,6=200,14=-1,18=20,26=3,27=203/3(-5);
 2/9=110/2;
 6/7=2,8=2,9=2,10=2,19=2,28=1/1;
 99/9=1/99;
 Leave Link    1 at Sun Aug 29 01:12:59 2021, MaxMem= 17179869184 cpu:        13.4
 (Enter /public3/home/sc51754/softwares/g09e01/l101.exe)
 ------------------------
 HY_H2O_SVWN_PC2_OPT_FREQ
 ------------------------
 Symbolic Z-matrix:
 Charge =  0 Multiplicity = 1
 O                     1.30114   1.36943  -0.0061 
 N                     0.31002  -0.68701  -0.00768 
 C                     0.20485   0.64468  -0.00104 
 C                    -1.04134   1.27544   0.0096 
 C                    -0.79416  -1.42869  -0.00687 
 C                    -2.17093   0.49689   0.01121 
 C                    -2.05833  -0.88831   0.00259 
 H                     2.11015   0.73162  -0.01455 
 H                    -1.07864   2.36517   0.01411 
 H                    -0.6445   -2.51243  -0.01647 
 H                    -3.15586   0.96911   0.018 
 H                    -2.93595  -1.5343    0.00178 
 O                     2.87523  -0.61068  -0.08414 
 H                     3.36336  -0.89707   0.70246 
 H                     1.91977  -0.98315  -0.02261 
 
 Add virtual bond connecting atoms H15        and O13        Dist= 1.94D+00.
 Add virtual bond connecting atoms H8         and O1         Dist= 1.95D+00.
 Add virtual bond connecting atoms O13        and H8         Dist= 2.92D+00.
 Add virtual bond connecting atoms H15        and N2         Dist= 3.09D+00.
 ------------------------
 PY_H2O_SVWN_PC2_OPT_FREQ
 ------------------------
 Symbolic Z-matrix:
 Charge =  0 Multiplicity = 1
 O                     1.32164   1.35574  -0.0008 
 N                     0.27795  -0.66282   0.00452 
 C                     0.25158   0.71769   0.00313 
 C                    -1.04798   1.29243   0.00451 
 C                    -0.81286  -1.43976   0.0027 
 C                    -2.16021   0.50583   0.0024 
 C                    -2.05937  -0.89305   0.00074 
 H                     2.47393   0.29919  -0.03597 
 H                    -1.10322   2.3812    0.00421 
 H                    -0.63598  -2.51662   0.0004 
 H                    -3.14844   0.97254   0.0011 
 H                    -2.94023  -1.53226  -0.00272 
 O                     2.87262  -0.64365  -0.0853 
 H                     3.56206  -0.71429   0.59017 
 H                     1.2652   -1.04563   0.01904 
 
 Add virtual bond connecting atoms O13        and H8         Dist= 1.94D+00.
 Add virtual bond connecting atoms H8         and O1         Dist= 2.96D+00.
 Add virtual bond connecting atoms O13        and H15        Dist= 3.14D+00.
 ------------
 TST_H2O_SVWN
 ------------
 Symbolic Z-matrix:
 Charge =  0 Multiplicity = 1
 O                     1.30603   1.39722  -0.00801 
 N                     0.3149   -0.65922  -0.0096 
 C                     0.20974   0.67247  -0.00296 
 C                    -1.03646   1.30322   0.00768 
 C                    -0.78928  -1.4009   -0.00879 
 C                    -2.16604   0.52468   0.00929 
 C                    -2.05345  -0.86053   0.00067 
 H                     2.30679   0.56383  -0.02673 
 H                    -1.07375   2.39296   0.01219 
 H                    -0.63962  -2.48464  -0.01839 
 H                    -3.15097   0.9969    0.01608 
 H                    -2.93106  -1.50652  -0.00014 
 O                     2.57285  -0.50269  -0.06839 
 H                     3.06099  -0.78909   0.71821 
 H                     1.57106  -0.95276  -0.00633 
 
 NAtoms=     15 NQM=       15 NQMF=       0 NMMI=      0 NMMIF=      0
                NMic=       0 NMicF=      0.
                    Isotopes and Nuclear Properties:
 (Nuclear quadrupole moments (NQMom) in fm**2, nuclear magnetic moments (NMagM)
  in nuclear magnetons)

  Atom         1           2           3           4           5           6           7           8           9          10
 IAtWgt=          16          14          12          12          12          12          12           1           1           1
 AtmWgt=  15.9949146  14.0030740  12.0000000  12.0000000  12.0000000  12.0000000  12.0000000   1.0078250   1.0078250   1.0078250
 NucSpn=           0           2           0           0           0           0           0           1           1           1
 AtZEff=   0.0000000   0.0000000   0.0000000   0.0000000   0.0000000   0.0000000   0.0000000   0.0000000   0.0000000   0.0000000
 NQMom=    0.0000000   2.0440000   0.0000000   0.0000000   0.0000000   0.0000000   0.0000000   0.0000000   0.0000000   0.0000000
 NMagM=    0.0000000   0.4037610   0.0000000   0.0000000   0.0000000   0.0000000   0.0000000   2.7928460   2.7928460   2.7928460
 AtZNuc=   8.0000000   7.0000000   6.0000000   6.0000000   6.0000000   6.0000000   6.0000000   1.0000000   1.0000000   1.0000000

  Atom        11          12          13          14          15
 IAtWgt=           1           1          16           1           1
 AtmWgt=   1.0078250   1.0078250  15.9949146   1.0078250   1.0078250
 NucSpn=           1           1           0           1           1
 AtZEff=   0.0000000   0.0000000   0.0000000   0.0000000   0.0000000
 NQMom=    0.0000000   0.0000000   0.0000000   0.0000000   0.0000000
 NMagM=    2.7928460   2.7928460   0.0000000   2.7928460   2.7928460
 AtZNuc=   1.0000000   1.0000000   8.0000000   1.0000000   1.0000000
 Leave Link  101 at Sun Aug 29 01:13:00 2021, MaxMem= 17179869184 cpu:        25.4
 (Enter /public3/home/sc51754/softwares/g09e01/l103.exe)

 GradGradGradGradGradGradGradGradGradGradGradGradGradGradGradGradGradGrad
 Berny optimization.
 Initialization pass.
                           ----------------------------
                           !    Initial Parameters    !
                           ! (Angstroms and Degrees)  !
 --------------------------                            --------------------------
 ! Name  Definition        TS        Reactant  Product Derivative Info.         !
 --------------------------------------------------------------------------------
 ! R1    R(1,3)             1.3142    1.3142    1.2459 calculate D2E/DX2 analyti!
 ! R2    R(1,8)             1.3025    1.0302    1.5638 calculate D2E/DX2 analyti!
 ! R3    R(2,3)             1.3359    1.3359    1.3808 calculate D2E/DX2 analyti!
 ! R4    R(2,5)             1.3302    1.3302    1.3392 calculate D2E/DX2 analyti!
 ! R5    R(2,15)            1.29      1.6368    1.059  calculate D2E/DX2 analyti!
 ! R6    R(3,4)             1.3968    1.3968    1.421  calculate D2E/DX2 analyti!
 ! R7    R(4,6)             1.3719    1.3719    1.3623 calculate D2E/DX2 analyti!
 ! R8    R(4,9)             1.0904    1.0904    1.0902 calculate D2E/DX2 analyti!
 ! R9    R(5,7)             1.3749    1.3749    1.3611 calculate D2E/DX2 analyti!
 ! R10   R(5,10)            1.0941    1.0941    1.0913 calculate D2E/DX2 analyti!
 ! R11   R(6,7)             1.3898    1.3898    1.4025 calculate D2E/DX2 analyti!
 ! R12   R(6,11)            1.0923    1.0923    1.0929 calculate D2E/DX2 analyti!
 ! R13   R(7,12)            1.0897    1.0897    1.0883 calculate D2E/DX2 analyti!
 ! R14   R(8,13)            1.1       1.5466    1.0249 calculate D2E/DX2 analyti!
 ! R15   R(13,14)           0.969     0.969     0.9678 calculate D2E/DX2 analyti!
 ! R16   R(13,15)           1.1       1.0273    1.6602 calculate D2E/DX2 analyti!
 ! A1    A(3,1,8)         106.7474  108.2812  106.6751 calculate D2E/DX2 analyti!
 ! A2    A(3,2,5)         119.3732  119.3732  124.3661 calculate D2E/DX2 analyti!
 ! A3    A(3,2,15)        107.667   104.9412  112.2871 calculate D2E/DX2 analyti!
 ! A4    A(5,2,15)        132.9578  135.6848  123.343  calculate D2E/DX2 analyti!
 ! A5    A(1,3,2)         118.951   118.951   119.7121 calculate D2E/DX2 analyti!
 ! A6    A(1,3,4)         119.6865  119.6865  125.3358 calculate D2E/DX2 analyti!
 ! A7    A(2,3,4)         121.3625  121.3625  114.952  calculate D2E/DX2 analyti!
 ! A8    A(3,4,6)         118.5779  118.5779  120.873  calculate D2E/DX2 analyti!
 ! A9    A(3,4,9)         118.807   118.807   116.762  calculate D2E/DX2 analyti!
 ! A10   A(6,4,9)         122.615   122.615   122.3648 calculate D2E/DX2 analyti!
 ! A11   A(2,5,7)         122.9657  122.9657  120.8572 calculate D2E/DX2 analyti!
 ! A12   A(2,5,10)        116.0251  116.0251  116.1326 calculate D2E/DX2 analyti!
 ! A13   A(7,5,10)        121.0091  121.0091  123.01   calculate D2E/DX2 analyti!
 ! A14   A(4,6,7)         119.9276  119.9276  121.1463 calculate D2E/DX2 analyti!
 ! A15   A(4,6,11)        119.8089  119.8089  119.451  calculate D2E/DX2 analyti!
 ! A16   A(7,6,11)        120.2634  120.2634  119.4026 calculate D2E/DX2 analyti!
 ! A17   A(5,7,6)         117.793   117.793   117.8049 calculate D2E/DX2 analyti!
 ! A18   A(5,7,12)        120.4985  120.4985  120.3507 calculate D2E/DX2 analyti!
 ! A19   A(6,7,12)        121.7085  121.7085  121.8444 calculate D2E/DX2 analyti!
 ! A20   A(1,8,13)        143.7814  157.8421  155.4119 calculate D2E/DX2 analyti!
 ! A21   A(8,13,14)       112.188   117.9803  108.1009 calculate D2E/DX2 analyti!
 ! A22   A(8,13,15)       100.037    81.4832   80.9717 calculate D2E/DX2 analyti!
 ! A23   A(14,13,15)      106.9807  108.2234  128.919  calculate D2E/DX2 analyti!
 ! A24   A(2,15,13)       142.522   148.168   144.5128 calculate D2E/DX2 analyti!
 ! D1    D(8,1,3,2)         0.3464   -0.0247    1.2546 calculate D2E/DX2 analyti!
 ! D2    D(8,1,3,4)      -179.5834 -179.9545 -178.649  calculate D2E/DX2 analyti!
 ! D3    D(3,1,8,13)        2.5311    5.7666    3.6187 calculate D2E/DX2 analyti!
 ! D4    D(5,2,3,1)      -179.7913 -179.7913 -179.691  calculate D2E/DX2 analyti!
 ! D5    D(5,2,3,4)         0.1373    0.1373    0.2223 calculate D2E/DX2 analyti!
 ! D6    D(15,2,3,1)        0.6522   -0.0557    0.9998 calculate D2E/DX2 analyti!
 ! D7    D(15,2,3,4)     -179.4192  179.8729 -179.087  calculate D2E/DX2 analyti!
 ! D8    D(3,2,5,7)        -0.1005   -0.1005   -0.0743 calculate D2E/DX2 analyti!
 ! D9    D(3,2,5,10)      179.7698  179.7698  179.7805 calculate D2E/DX2 analyti!
 ! D10   D(15,2,5,7)      179.322  -179.7349  179.1607 calculate D2E/DX2 analyti!
 ! D11   D(15,2,5,10)      -0.8077    0.1354   -0.9846 calculate D2E/DX2 analyti!
 ! D12   D(3,2,15,13)      -5.8553   -5.8294   -7.5836 calculate D2E/DX2 analyti!
 ! D13   D(5,2,15,13)     174.6729  173.8409  173.0989 calculate D2E/DX2 analyti!
 ! D14   D(1,3,4,6)       179.8342  179.8342  179.6817 calculate D2E/DX2 analyti!
 ! D15   D(1,3,4,9)        -0.0351   -0.0351   -0.1368 calculate D2E/DX2 analyti!
 ! D16   D(2,3,4,6)        -0.0939   -0.0939   -0.2259 calculate D2E/DX2 analyti!
 ! D17   D(2,3,4,9)      -179.9632 -179.9632  179.9555 calculate D2E/DX2 analyti!
 ! D18   D(3,4,6,7)         0.0116    0.0116    0.0919 calculate D2E/DX2 analyti!
 ! D19   D(3,4,6,11)     -179.9115 -179.9115 -179.8542 calculate D2E/DX2 analyti!
 ! D20   D(9,4,6,7)       179.8757  179.8757  179.9001 calculate D2E/DX2 analyti!
 ! D21   D(9,4,6,11)       -0.0475   -0.0475   -0.046  calculate D2E/DX2 analyti!
 ! D22   D(2,5,7,6)         0.0196    0.0196   -0.0782 calculate D2E/DX2 analyti!
 ! D23   D(2,5,7,12)      179.9322  179.9322  179.8785 calculate D2E/DX2 analyti!
 ! D24   D(10,5,7,6)     -179.8444 -179.8444 -179.9227 calculate D2E/DX2 analyti!
 ! D25   D(10,5,7,12)       0.0682    0.0682    0.034  calculate D2E/DX2 analyti!
 ! D26   D(4,6,7,5)         0.0242    0.0242    0.0663 calculate D2E/DX2 analyti!
 ! D27   D(4,6,7,12)     -179.8873 -179.8873 -179.8897 calculate D2E/DX2 analyti!
 ! D28   D(11,6,7,5)      179.947   179.947  -179.9876 calculate D2E/DX2 analyti!
 ! D29   D(11,6,7,12)       0.0355    0.0355    0.0564 calculate D2E/DX2 analyti!
 ! D30   D(1,8,13,14)    -118.3517 -114.355  -134.2664 calculate D2E/DX2 analyti!
 ! D31   D(1,8,13,15)      -5.242    -8.1839   -6.1483 calculate D2E/DX2 analyti!
 ! D32   D(8,13,15,2)       7.2471    6.6471    8.6544 calculate D2E/DX2 analyti!
 ! D33   D(14,13,15,2)    124.315   123.4002  114.6784 calculate D2E/DX2 analyti!
 --------------------------------------------------------------------------------
 Trust Radius=3.00D-01 FncErr=1.00D-07 GrdErr=1.00D-06
 Number of steps in this run=    100 maximum allowed number of steps=    100.
 Search for a saddle point of order  1.
 GradGradGradGradGradGradGradGradGradGradGradGradGradGradGradGradGradGrad

 Leave Link  103 at Sun Aug 29 01:13:01 2021, MaxMem= 17179869184 cpu:         5.8
 (Enter /public3/home/sc51754/softwares/g09e01/l202.exe)
                          Input orientation:                          
 ---------------------------------------------------------------------
 Center     Atomic      Atomic             Coordinates (Angstroms)
 Number     Number       Type             X           Y           Z
 ---------------------------------------------------------------------
      1          8           0        1.306025    1.397215   -0.008015
      2          7           0        0.314903   -0.659224   -0.009601
      3          6           0        0.209736    0.672468   -0.002964
      4          6           0       -1.036457    1.303220    0.007678
      5          6           0       -0.789278   -1.400902   -0.008787
      6          6           0       -2.166043    0.524675    0.009289
      7          6           0       -2.053448   -0.860527    0.000667
      8          1           0        2.306794    0.563832   -0.026732
      9          1           0       -1.073753    2.392958    0.012190
     10          1           0       -0.639616   -2.484642   -0.018386
     11          1           0       -3.150975    0.996895    0.016080
     12          1           0       -2.931064   -1.506519   -0.000143
     13          8           0        2.572851   -0.502695   -0.068387
     14          1           0        3.060990   -0.789087    0.718214
     15          1           0        1.571056   -0.952756   -0.006331
 ---------------------------------------------------------------------
                    Distance matrix (angstroms):
                    1          2          3          4          5
     1  O    0.000000
     2  N    2.282820   0.000000
     3  C    1.314204   1.335855   0.000000
     4  C    2.344420   2.382784   1.396767   0.000000
     5  C    3.495676   1.330151   2.301505   2.715446   0.000000
     6  C    3.580067   2.749012   2.380403   1.371896   2.367204
     7  C    4.047658   2.376913   2.733512   2.390841   1.374853
     8  H    1.302466   2.337474   2.100004   3.424209   3.666900
     9  H    2.579778   3.353305   2.146546   1.090385   3.804568
    10  H    4.342170   2.059936   3.269401   3.808682   1.094067
    11  H    4.475007   3.841315   3.376388   2.136608   3.365659
    12  H    5.136600   3.354743   3.822645   3.388839   2.144406
    13  O    2.284327   2.264130   2.640000   4.036610   3.480551
    14  H    2.896071   2.843866   3.284188   4.655285   3.965780
    15  H    2.364870   1.289996   2.120037   3.448006   2.402502
                    6          7          8          9         10
     6  C    0.000000
     7  C    1.389797   0.000000
     8  H    4.473153   4.587075   0.000000
     9  H    2.164160   3.397808   3.843867   0.000000
    10  H    3.374424   2.153377   4.239645   4.896978   0.000000
    11  H    1.092304   2.157503   5.475091   2.502770   4.292926
    12  H    2.170506   1.089732   5.632247   4.319222   2.491544
    13  O    4.849602   4.640631   1.100000   4.657147   3.774991
    14  H    5.436030   5.165022   1.718762   5.264977   4.136662
    15  H    4.018576   3.625683   1.685754   4.264875   2.689589
                   11         12         13         14         15
    11  H    0.000000
    12  H    2.513107   0.000000
    13  O    5.917608   5.595123   0.000000
    14  H    6.501633   6.077454   0.969041   0.000000
    15  H    5.108739   4.536052   1.100000   1.664830   0.000000
 Stoichiometry    C5H7NO2
 Framework group  C1[X(C5H7NO2)]
 Deg. of freedom    39
 Full point group                 C1      NOp   1
 Largest Abelian subgroup         C1      NOp   1
 Largest concise Abelian subgroup C1      NOp   1
                         Standard orientation:                         
 ---------------------------------------------------------------------
 Center     Atomic      Atomic             Coordinates (Angstroms)
 Number     Number       Type             X           Y           Z
 ---------------------------------------------------------------------
      1          8           0        1.399731    1.309319   -0.009978
      2          7           0        0.332565   -0.708704   -0.012607
      3          6           0        0.277179    0.625970   -0.003368
      4          6           0       -0.944580    1.302757    0.011593
      5          6           0       -0.798516   -1.408670   -0.010243
      6          6           0       -2.102422    0.566896    0.014755
      7          6           0       -2.041615   -0.821524    0.003418
      8          1           0        2.368656    0.439214   -0.032736
      9          1           0       -0.941177    2.393117    0.018109
     10          1           0       -0.689421   -2.497219   -0.022126
     11          1           0       -3.069028    1.075521    0.024913
     12          1           0       -2.942723   -1.434321    0.003741
     13          8           0        2.594626   -0.636418   -0.076944
     14          1           0        3.073714   -0.942273    0.707893
     15          1           0        1.576894   -1.048903   -0.013092
 ---------------------------------------------------------------------
 Rotational constants (GHZ):      4.2196164      1.6799219      1.2049491
 Leave Link  202 at Sun Aug 29 01:13:01 2021, MaxMem= 17179869184 cpu:         7.4
 (Enter /public3/home/sc51754/softwares/g09e01/l301.exe)
 General basis read from cards:  (5D, 7F)
 Centers:       8      9     10     11     12     14     15
 S 4 1.00
     Exponent=  7.5423000000D+01 Coefficients=  2.4065000000D-03
     Exponent=  1.1350000000D+01 Coefficients=  1.8487000000D-02
     Exponent=  2.5993000000D+00 Coefficients=  8.9742000000D-02
     Exponent=  7.3513000000D-01 Coefficients=  2.8111000000D-01
 S 1 1.00
     Exponent=  2.3167000000D-01 Coefficients=  1.0000000000D+00
 S 1 1.00
     Exponent=  7.4147000000D-02 Coefficients=  1.0000000000D+00
 P 1 1.00
     Exponent=  1.6000000000D+00 Coefficients=  1.0000000000D+00
 P 1 1.00
     Exponent=  4.5000000000D-01 Coefficients=  1.0000000000D+00
 D 1 1.00
     Exponent=  1.2500000000D+00 Coefficients=  1.0000000000D+00
 ****
 Centers:       3      4      5      6      7
 S 7 1.00
     Exponent=  7.8571000000D+03 Coefficients=  5.6825000000D-04
     Exponent=  1.1787000000D+03 Coefficients=  4.3915000000D-03
     Exponent=  2.6832000000D+02 Coefficients=  2.2504000000D-02
     Exponent=  7.5948000000D+01 Coefficients=  8.6653000000D-02
     Exponent=  2.4559000000D+01 Coefficients=  2.4405000000D-01
     Exponent=  8.6212000000D+00 Coefficients=  4.4148000000D-01
     Exponent=  3.1278000000D+00 Coefficients=  3.5332000000D-01
 S 7 1.00
     Exponent=  1.1787000000D+03 Coefficients= -5.9492000000D-07
     Exponent=  2.6832000000D+02 Coefficients= -6.2748000000D-05
     Exponent=  7.5948000000D+01 Coefficients= -7.5773000000D-04
     Exponent=  2.4559000000D+01 Coefficients= -7.3308000000D-03
     Exponent=  8.6212000000D+00 Coefficients= -3.8932000000D-02
     Exponent=  3.1278000000D+00 Coefficients= -8.8908000000D-02
     Exponent=  8.2202000000D-01 Coefficients=  2.1689000000D-01
 S 1 1.00
     Exponent=  3.3017000000D-01 Coefficients=  1.0000000000D+00
 S 1 1.00
     Exponent=  1.1463000000D-01 Coefficients=  1.0000000000D+00
 P 4 1.00
     Exponent=  3.3775000000D+01 Coefficients=  6.0294000000D-03
     Exponent=  7.6766000000D+00 Coefficients=  4.3228000000D-02
     Exponent=  2.2357000000D+00 Coefficients=  1.6301000000D-01
     Exponent=  7.6447000000D-01 Coefficients=  3.6504000000D-01
 P 1 1.00
     Exponent=  2.6232000000D-01 Coefficients=  1.0000000000D+00
 P 1 1.00
     Exponent=  8.4638000000D-02 Coefficients=  1.0000000000D+00
 D 1 1.00
     Exponent=  1.4000000000D+00 Coefficients=  1.0000000000D+00
 D 1 1.00
     Exponent=  4.5000000000D-01 Coefficients=  1.0000000000D+00
 F 1 1.00
     Exponent=  9.5000000000D-01 Coefficients=  1.0000000000D+00
 ****
 Centers:       2
 S 7 1.00
     Exponent=  1.1101000000D+04 Coefficients=  5.4570000000D-04
     Exponent=  1.6653000000D+03 Coefficients=  4.2181000000D-03
     Exponent=  3.7908000000D+02 Coefficients=  2.1645000000D-02
     Exponent=  1.0730000000D+02 Coefficients=  8.3776000000D-02
     Exponent=  3.4747000000D+01 Coefficients=  2.3881000000D-01
     Exponent=  1.2249000000D+01 Coefficients=  4.3994000000D-01
     Exponent=  4.4743000000D+00 Coefficients=  3.6364000000D-01
 S 7 1.00
     Exponent=  1.6653000000D+03 Coefficients= -1.5006000000D-06
     Exponent=  3.7908000000D+02 Coefficients= -5.8753000000D-05
     Exponent=  1.0730000000D+02 Coefficients= -7.7453000000D-04
     Exponent=  3.4747000000D+01 Coefficients= -7.2161000000D-03
     Exponent=  1.2249000000D+01 Coefficients= -3.9338000000D-02
     Exponent=  4.4743000000D+00 Coefficients= -9.0611000000D-02
     Exponent=  1.2404000000D+00 Coefficients=  1.9882000000D-01
 S 1 1.00
     Exponent=  4.8743000000D-01 Coefficients=  1.0000000000D+00
 S 1 1.00
     Exponent=  1.6484000000D-01 Coefficients=  1.0000000000D+00
 P 4 1.00
     Exponent=  4.7934000000D+01 Coefficients=  6.1706000000D-03
     Exponent=  1.0999000000D+01 Coefficients=  4.4260000000D-02
     Exponent=  3.2472000000D+00 Coefficients=  1.6825000000D-01
     Exponent=  1.1114000000D+00 Coefficients=  3.6848000000D-01
 P 1 1.00
     Exponent=  3.7988000000D-01 Coefficients=  1.0000000000D+00
 P 1 1.00
     Exponent=  1.2068000000D-01 Coefficients=  1.0000000000D+00
 D 1 1.00
     Exponent=  1.8000000000D+00 Coefficients=  1.0000000000D+00
 D 1 1.00
     Exponent=  5.5000000000D-01 Coefficients=  1.0000000000D+00
 F 1 1.00
     Exponent=  1.0200000000D+00 Coefficients=  1.0000000000D+00
 ****
 Centers:       1     13
 S 7 1.00
     Exponent=  1.4782000000D+04 Coefficients=  5.3519000000D-04
     Exponent=  2.2173000000D+03 Coefficients=  4.1375000000D-03
     Exponent=  5.0474000000D+02 Coefficients=  2.1245000000D-02
     Exponent=  1.4287000000D+02 Coefficients=  8.2453000000D-02
     Exponent=  4.6300000000D+01 Coefficients=  2.3671000000D-01
     Exponent=  1.6337000000D+01 Coefficients=  4.4039000000D-01
     Exponent=  5.9828000000D+00 Coefficients=  3.6465000000D-01
 S 7 1.00
     Exponent=  2.2173000000D+03 Coefficients= -1.9275000000D-06
     Exponent=  5.0474000000D+02 Coefficients= -5.7964000000D-05
     Exponent=  1.4287000000D+02 Coefficients= -7.9494000000D-04
     Exponent=  4.6300000000D+01 Coefficients= -7.3125000000D-03
     Exponent=  1.6337000000D+01 Coefficients= -4.0574000000D-02
     Exponent=  5.9828000000D+00 Coefficients= -9.1594000000D-02
     Exponent=  1.6718000000D+00 Coefficients=  2.0940000000D-01
 S 1 1.00
     Exponent=  6.4662000000D-01 Coefficients=  1.0000000000D+00
 S 1 1.00
     Exponent=  2.1669000000D-01 Coefficients=  1.0000000000D+00
 P 4 1.00
     Exponent=  6.0424000000D+01 Coefficients=  6.8949000000D-03
     Exponent=  1.3935000000D+01 Coefficients=  4.9005000000D-02
     Exponent=  4.1531000000D+00 Coefficients=  1.8255000000D-01
     Exponent=  1.4158000000D+00 Coefficients=  3.7633000000D-01
 P 1 1.00
     Exponent=  4.7549000000D-01 Coefficients=  1.0000000000D+00
 P 1 1.00
     Exponent=  1.4529000000D-01 Coefficients=  1.0000000000D+00
 D 1 1.00
     Exponent=  2.2000000000D+00 Coefficients=  1.0000000000D+00
 D 1 1.00
     Exponent=  6.5000000000D-01 Coefficients=  1.0000000000D+00
 F 1 1.00
     Exponent=  1.1000000000D+00 Coefficients=  1.0000000000D+00
 ****
 Ernie: Thresh=  0.10000D-02 Tol=  0.10000D-05 Strict=F.
 Ernie:  8 primitive shells out of 263 were deleted.
 There are   385 symmetry adapted cartesian basis functions of A   symmetry.
 There are   338 symmetry adapted basis functions of A   symmetry.
   338 basis functions,   566 primitive gaussians,   385 cartesian basis functions
    30 alpha electrons       30 beta electrons
       nuclear repulsion energy       371.4852719198 Hartrees.
 IExCor=  205 DFT=T Ex=S Corr=VWN ExCW=0 ScaHFX=  0.000000
 ScaDFX=  1.000000  1.000000  1.000000  1.000000 ScalE2=  1.000000  1.000000
 IRadAn=      0 IRanWt=     -1 IRanGd=            0 ICorTp=0 IEmpDi=  4
 NAtoms=   15 NActive=   15 NUniq=   15 SFac= 1.00D+00 NAtFMM=   60 NAOKFM=F Big=F
 Integral buffers will be    131072 words long.
 Raffenetti 2 integral format.
 Two-electron integral symmetry is turned on.
 Leave Link  301 at Sun Aug 29 01:13:03 2021, MaxMem= 17179869184 cpu:        33.8
 (Enter /public3/home/sc51754/softwares/g09e01/l302.exe)
 NPDir=0 NMtPBC=     1 NCelOv=     1 NCel=       1 NClECP=     1 NCelD=      1
         NCelK=      1 NCelE2=     1 NClLst=     1 CellRange=     0.0.
 One-electron integrals computed using PRISM.
 NBasis=   338 RedAO= T EigKep=  1.46D-04  NBF=   338
 NBsUse=   338 1.00D-06 EigRej= -1.00D+00 NBFU=   338
 Precomputing XC quadrature grid using
 IXCGrd= 4 IRadAn=           0 IRanWt=          -1 IRanGd=           0 AccXCQ= 0.00D+00.
 Generated NRdTot=       0 NPtTot=           0 NUsed=           0 NTot=          32
 NSgBfM=   385   385   385   385   385 MxSgAt=    15 MxSgA2=    15.
 Leave Link  302 at Sun Aug 29 01:13:05 2021, MaxMem= 17179869184 cpu:        69.7
 (Enter /public3/home/sc51754/softwares/g09e01/l303.exe)
 DipDrv:  MaxL=1.
 Leave Link  303 at Sun Aug 29 01:13:05 2021, MaxMem= 17179869184 cpu:        14.8
 (Enter /public3/home/sc51754/softwares/g09e01/l401.exe)
 ExpMin= 7.41D-02 ExpMax= 1.48D+04 ExpMxC= 5.05D+02 IAcc=2 IRadAn=         4 AccDes= 0.00D+00
 Harris functional with IExCor=  205 and IRadAn=       4 diagonalized for initial guess.
 HarFok:  IExCor=  205 AccDes= 0.00D+00 IRadAn=         4 IDoV= 1 UseB2=F ITyADJ=14
 ICtDFT=  3500011 ScaDFX=  1.000000  1.000000  1.000000  1.000000
 FoFCou: FMM=F IPFlag=           0 FMFlag=      100000 FMFlg1=           0
         NFxFlg=           0 DoJE=T BraDBF=F KetDBF=T FulRan=T
         wScrn=  0.000000 ICntrl=     500 IOpCl=  0 I1Cent=   200000004 NGrid=           0
         NMat0=    1 NMatS0=      1 NMatT0=    0 NMatD0=    1 NMtDS0=    0 NMtDT0=    0
 Petite list used in FoFCou.
 Harris En= -398.211062526189    
 JPrj=0 DoOrth=F DoCkMO=F.
 Leave Link  401 at Sun Aug 29 01:13:07 2021, MaxMem= 17179869184 cpu:        80.6
 (Enter /public3/home/sc51754/softwares/g09e01/l502.exe)
 Closed shell SCF:
 Using DIIS extrapolation, IDIIS=  1040.
 Integral symmetry usage will be decided dynamically.
 Keep J ints in memory in canonical form, NReq=1670404686.
 IVT=      490665 IEndB=      490665 NGot= 17179869184 MDV= 15538220534
 LenX= 15538220534 LenY= 15538071868
 Requested convergence on RMS density matrix=1.00D-08 within 128 cycles.
 Requested convergence on MAX density matrix=1.00D-06.
 Requested convergence on             energy=1.00D-06.
 No special actions if energy rises.
 FoFCou: FMM=F IPFlag=           0 FMFlag=           0 FMFlg1=           0
         NFxFlg=           0 DoJE=F BraDBF=F KetDBF=F FulRan=T
         wScrn=  0.000000 ICntrl=     600 IOpCl=  0 I1Cent=           0 NGrid=           0
         NMat0=    1 NMatS0=  57291 NMatT0=    0 NMatD0=    1 NMtDS0=    0 NMtDT0=    0
 Symmetry not used in FoFCou.

 Cycle   1  Pass 1  IDiag  1:
 E= -397.784133462141    
 DIIS: error= 2.40D-02 at cycle   1 NSaved=   1.
 NSaved= 1 IEnMin= 1 EnMin= -397.784133462141     IErMin= 1 ErrMin= 2.40D-02
 ErrMax= 2.40D-02  0.00D+00 EMaxC= 1.00D-01 BMatC= 2.64D-01 BMatP= 2.64D-01
 IDIUse=3 WtCom= 7.60D-01 WtEn= 2.40D-01
 Coeff-Com:  0.100D+01
 Coeff-En:   0.100D+01
 Coeff:      0.100D+01
 Gap=     0.098 Goal=   None    Shift=    0.000
 GapD=    0.098 DampG=0.500 DampE=0.500 DampFc=0.2500 IDamp=-1.
 Damping current iteration by 2.50D-01
 RMSDP=3.69D-03 MaxDP=1.24D-01              OVMax= 3.39D-01

 Cycle   2  Pass 1  IDiag  1:
 E= -397.862618804864     Delta-E=       -0.078485342723 Rises=F Damp=T
 DIIS: error= 1.21D-02 at cycle   2 NSaved=   2.
 NSaved= 2 IEnMin= 2 EnMin= -397.862618804864     IErMin= 2 ErrMin= 1.21D-02
 ErrMax= 1.21D-02  0.00D+00 EMaxC= 1.00D-01 BMatC= 3.67D-02 BMatP= 2.64D-01
 IDIUse=3 WtCom= 8.79D-01 WtEn= 1.21D-01
 Coeff-Com: -0.387D+00 0.139D+01
 Coeff-En:   0.000D+00 0.100D+01
 Coeff:     -0.340D+00 0.134D+01
 Gap=     0.186 Goal=   None    Shift=    0.000
 RMSDP=9.58D-04 MaxDP=3.97D-02 DE=-7.85D-02 OVMax= 3.32D-01

 Cycle   3  Pass 1  IDiag  1:
 E= -397.951670922111     Delta-E=       -0.089052117246 Rises=F Damp=F
 DIIS: error= 8.91D-03 at cycle   3 NSaved=   3.
 NSaved= 3 IEnMin= 3 EnMin= -397.951670922111     IErMin= 3 ErrMin= 8.91D-03
 ErrMax= 8.91D-03  0.00D+00 EMaxC= 1.00D-01 BMatC= 6.76D-02 BMatP= 3.67D-02
 IDIUse=3 WtCom= 9.58D-02 WtEn= 9.04D-01
 Coeff-Com: -0.316D+00 0.988D+00 0.328D+00
 Coeff-En:   0.833D-02 0.000D+00 0.992D+00
 Coeff:     -0.227D-01 0.946D-01 0.928D+00
 Gap=     0.090 Goal=   None    Shift=    0.000
 RMSDP=2.34D-03 MaxDP=1.36D-01 DE=-8.91D-02 OVMax= 5.51D-01

 Cycle   4  Pass 1  IDiag  1:
 E= -397.354223933785     Delta-E=        0.597446988326 Rises=F Damp=F
 DIIS: error= 3.74D-02 at cycle   4 NSaved=   4.
 NSaved= 4 IEnMin= 3 EnMin= -397.951670922111     IErMin= 3 ErrMin= 8.91D-03
 ErrMax= 3.74D-02  0.00D+00 EMaxC= 1.00D-01 BMatC= 7.23D-01 BMatP= 3.67D-02
 IDIUse=2 WtCom= 0.00D+00 WtEn= 1.00D+00
 Coeff-En:   0.000D+00 0.000D+00 0.849D+00 0.151D+00
 Coeff:      0.000D+00 0.000D+00 0.849D+00 0.151D+00
 Gap=     0.109 Goal=   None    Shift=    0.000
 RMSDP=1.37D-03 MaxDP=8.10D-02 DE= 5.97D-01 OVMax= 3.60D-01

 Cycle   5  Pass 1  IDiag  1:
 E= -397.948375575667     Delta-E=       -0.594151641882 Rises=F Damp=F
 DIIS: error= 9.78D-03 at cycle   5 NSaved=   5.
 NSaved= 5 IEnMin= 3 EnMin= -397.951670922111     IErMin= 3 ErrMin= 8.91D-03
 ErrMax= 9.78D-03  0.00D+00 EMaxC= 1.00D-01 BMatC= 7.20D-02 BMatP= 3.67D-02
 IDIUse=3 WtCom= 9.18D-02 WtEn= 9.08D-01
 Coeff-Com: -0.872D-01 0.259D+00 0.430D+00-0.275D-01 0.426D+00
 Coeff-En:   0.000D+00 0.000D+00 0.509D+00 0.000D+00 0.491D+00
 Coeff:     -0.801D-02 0.238D-01 0.502D+00-0.253D-02 0.485D+00
 Gap=     0.129 Goal=   None    Shift=    0.000
 RMSDP=5.85D-04 MaxDP=3.13D-02 DE=-5.94D-01 OVMax= 1.38D-01

 Cycle   6  Pass 1  IDiag  1:
 E= -398.012441039904     Delta-E=       -0.064065464237 Rises=F Damp=F
 DIIS: error= 1.72D-03 at cycle   6 NSaved=   6.
 NSaved= 6 IEnMin= 6 EnMin= -398.012441039904     IErMin= 6 ErrMin= 1.72D-03
 ErrMax= 1.72D-03  0.00D+00 EMaxC= 1.00D-01 BMatC= 1.06D-03 BMatP= 3.67D-02
 IDIUse=3 WtCom= 9.83D-01 WtEn= 1.72D-02
 Coeff-Com: -0.302D-01 0.657D-01 0.233D+00-0.383D-01 0.322D+00 0.448D+00
 Coeff-En:   0.000D+00 0.000D+00 0.000D+00 0.000D+00 0.000D+00 0.100D+01
 Coeff:     -0.297D-01 0.645D-01 0.229D+00-0.377D-01 0.316D+00 0.458D+00
 Gap=     0.128 Goal=   None    Shift=    0.000
 RMSDP=8.69D-05 MaxDP=4.95D-03 DE=-6.41D-02 OVMax= 1.57D-02

 Cycle   7  Pass 1  IDiag  1:
 E= -398.013262032649     Delta-E=       -0.000820992745 Rises=F Damp=F
 DIIS: error= 8.93D-04 at cycle   7 NSaved=   7.
 NSaved= 7 IEnMin= 7 EnMin= -398.013262032649     IErMin= 7 ErrMin= 8.93D-04
 ErrMax= 8.93D-04  0.00D+00 EMaxC= 1.00D-01 BMatC= 1.87D-04 BMatP= 1.06D-03
 IDIUse=3 WtCom= 9.91D-01 WtEn= 8.93D-03
 Coeff-Com: -0.132D-01 0.269D-01 0.114D+00-0.227D-01 0.159D+00 0.296D+00
 Coeff-Com:  0.440D+00
 Coeff-En:   0.000D+00 0.000D+00 0.000D+00 0.000D+00 0.000D+00 0.151D+00
 Coeff-En:   0.849D+00
 Coeff:     -0.131D-01 0.267D-01 0.113D+00-0.225D-01 0.158D+00 0.294D+00
 Coeff:      0.444D+00
 Gap=     0.128 Goal=   None    Shift=    0.000
 RMSDP=3.62D-05 MaxDP=1.95D-03 DE=-8.21D-04 OVMax= 8.78D-03

 Cycle   8  Pass 1  IDiag  1:
 E= -398.013421074678     Delta-E=       -0.000159042029 Rises=F Damp=F
 DIIS: error= 2.61D-04 at cycle   8 NSaved=   8.
 NSaved= 8 IEnMin= 8 EnMin= -398.013421074678     IErMin= 8 ErrMin= 2.61D-04
 ErrMax= 2.61D-04  0.00D+00 EMaxC= 1.00D-01 BMatC= 3.29D-05 BMatP= 1.87D-04
 IDIUse=3 WtCom= 9.97D-01 WtEn= 2.61D-03
 Coeff-Com:  0.985D-03 0.106D-02 0.197D-01-0.296D-02 0.115D-01 0.624D-01
 Coeff-Com:  0.296D+00 0.612D+00
 Coeff-En:   0.000D+00 0.000D+00 0.000D+00 0.000D+00 0.000D+00 0.000D+00
 Coeff-En:   0.682D-01 0.932D+00
 Coeff:      0.982D-03 0.105D-02 0.196D-01-0.296D-02 0.114D-01 0.623D-01
 Coeff:      0.295D+00 0.613D+00
 Gap=     0.129 Goal=   None    Shift=    0.000
 RMSDP=1.52D-05 MaxDP=7.52D-04 DE=-1.59D-04 OVMax= 3.66D-03

 Cycle   9  Pass 1  IDiag  1:
 E= -398.013449383582     Delta-E=       -0.000028308904 Rises=F Damp=F
 DIIS: error= 1.04D-04 at cycle   9 NSaved=   9.
 NSaved= 9 IEnMin= 9 EnMin= -398.013449383582     IErMin= 9 ErrMin= 1.04D-04
 ErrMax= 1.04D-04  0.00D+00 EMaxC= 1.00D-01 BMatC= 2.49D-06 BMatP= 3.29D-05
 IDIUse=3 WtCom= 9.99D-01 WtEn= 1.04D-03
 Coeff-Com:  0.213D-02-0.286D-02 0.763D-02-0.766D-03 0.485D-03 0.308D-01
 Coeff-Com:  0.169D+00 0.395D+00 0.398D+00
 Coeff-En:   0.000D+00 0.000D+00 0.000D+00 0.000D+00 0.000D+00 0.000D+00
 Coeff-En:   0.000D+00 0.000D+00 0.100D+01
 Coeff:      0.213D-02-0.285D-02 0.762D-02-0.765D-03 0.484D-03 0.308D-01
 Coeff:      0.169D+00 0.395D+00 0.399D+00
 Gap=     0.129 Goal=   None    Shift=    0.000
 RMSDP=3.77D-06 MaxDP=2.42D-04 DE=-2.83D-05 OVMax= 7.33D-04

 Cycle  10  Pass 1  IDiag  1:
 E= -398.013451724656     Delta-E=       -0.000002341075 Rises=F Damp=F
 DIIS: error= 1.08D-05 at cycle  10 NSaved=  10.
 NSaved=10 IEnMin=10 EnMin= -398.013451724656     IErMin=10 ErrMin= 1.08D-05
 ErrMax= 1.08D-05  0.00D+00 EMaxC= 1.00D-01 BMatC= 6.62D-08 BMatP= 2.49D-06
 IDIUse=1 WtCom= 1.00D+00 WtEn= 0.00D+00
 Coeff-Com:  0.843D-03-0.118D-02 0.143D-02-0.179D-04-0.115D-02 0.731D-02
 Coeff-Com:  0.447D-01 0.118D+00 0.188D+00 0.642D+00
 Coeff:      0.843D-03-0.118D-02 0.143D-02-0.179D-04-0.115D-02 0.731D-02
 Coeff:      0.447D-01 0.118D+00 0.188D+00 0.642D+00
 Gap=     0.129 Goal=   None    Shift=    0.000
 RMSDP=6.63D-07 MaxDP=2.52D-05 DE=-2.34D-06 OVMax= 8.54D-05

 Cycle  11  Pass 1  IDiag  1:
 E= -398.013451778236     Delta-E=       -0.000000053579 Rises=F Damp=F
 DIIS: error= 3.98D-06 at cycle  11 NSaved=  11.
 NSaved=11 IEnMin=11 EnMin= -398.013451778236     IErMin=11 ErrMin= 3.98D-06
 ErrMax= 3.98D-06  0.00D+00 EMaxC= 1.00D-01 BMatC= 3.87D-09 BMatP= 6.62D-08
 IDIUse=1 WtCom= 1.00D+00 WtEn= 0.00D+00
 Coeff-Com:  0.389D-03-0.498D-03 0.600D-03 0.349D-05-0.612D-03 0.305D-02
 Coeff-Com:  0.196D-01 0.524D-01 0.904D-01 0.340D+00 0.495D+00
 Coeff:      0.389D-03-0.498D-03 0.600D-03 0.349D-05-0.612D-03 0.305D-02
 Coeff:      0.196D-01 0.524D-01 0.904D-01 0.340D+00 0.495D+00
 Gap=     0.129 Goal=   None    Shift=    0.000
 RMSDP=2.39D-07 MaxDP=8.69D-06 DE=-5.36D-08 OVMax= 4.32D-05

 Cycle  12  Pass 1  IDiag  1:
 E= -398.013451780854     Delta-E=       -0.000000002619 Rises=F Damp=F
 DIIS: error= 3.36D-06 at cycle  12 NSaved=  12.
 NSaved=12 IEnMin=12 EnMin= -398.013451780854     IErMin=12 ErrMin= 3.36D-06
 ErrMax= 3.36D-06  0.00D+00 EMaxC= 1.00D-01 BMatC= 1.70D-09 BMatP= 3.87D-09
 IDIUse=1 WtCom= 1.00D+00 WtEn= 0.00D+00
 Coeff-Com:  0.163D-03-0.208D-03 0.191D-03 0.614D-05-0.246D-03 0.102D-02
 Coeff-Com:  0.671D-02 0.179D-01 0.359D-01 0.149D+00 0.377D+00 0.413D+00
 Coeff:      0.163D-03-0.208D-03 0.191D-03 0.614D-05-0.246D-03 0.102D-02
 Coeff:      0.671D-02 0.179D-01 0.359D-01 0.149D+00 0.377D+00 0.413D+00
 Gap=     0.129 Goal=   None    Shift=    0.000
 RMSDP=9.96D-08 MaxDP=4.46D-06 DE=-2.62D-09 OVMax= 1.93D-05

 Cycle  13  Pass 1  IDiag  1:
 E= -398.013451782523     Delta-E=       -0.000000001669 Rises=F Damp=F
 DIIS: error= 4.77D-07 at cycle  13 NSaved=  13.
 NSaved=13 IEnMin=13 EnMin= -398.013451782523     IErMin=13 ErrMin= 4.77D-07
 ErrMax= 4.77D-07  0.00D+00 EMaxC= 1.00D-01 BMatC= 7.26D-11 BMatP= 1.70D-09
 IDIUse=1 WtCom= 1.00D+00 WtEn= 0.00D+00
 Coeff-Com:  0.494D-04-0.591D-04 0.510D-04 0.118D-05-0.646D-04 0.240D-03
 Coeff-Com:  0.164D-02 0.417D-02 0.103D-01 0.446D-01 0.132D+00 0.209D+00
 Coeff-Com:  0.597D+00
 Coeff:      0.494D-04-0.591D-04 0.510D-04 0.118D-05-0.646D-04 0.240D-03
 Coeff:      0.164D-02 0.417D-02 0.103D-01 0.446D-01 0.132D+00 0.209D+00
 Coeff:      0.597D+00
 Gap=     0.129 Goal=   None    Shift=    0.000
 RMSDP=2.10D-08 MaxDP=9.02D-07 DE=-1.67D-09 OVMax= 4.03D-06

 Cycle  14  Pass 1  IDiag  1:
 E= -398.013451782607     Delta-E=       -0.000000000084 Rises=F Damp=F
 DIIS: error= 1.51D-07 at cycle  14 NSaved=  14.
 NSaved=14 IEnMin=14 EnMin= -398.013451782607     IErMin=14 ErrMin= 1.51D-07
 ErrMax= 1.51D-07  0.00D+00 EMaxC= 1.00D-01 BMatC= 9.24D-12 BMatP= 7.26D-11
 IDIUse=1 WtCom= 1.00D+00 WtEn= 0.00D+00
 Coeff-Com:  0.142D-04-0.149D-04 0.110D-04 0.404D-06-0.167D-04 0.346D-04
 Coeff-Com:  0.298D-03 0.633D-03 0.269D-02 0.121D-01 0.411D-01 0.879D-01
 Coeff-Com:  0.366D+00 0.490D+00
 Coeff:      0.142D-04-0.149D-04 0.110D-04 0.404D-06-0.167D-04 0.346D-04
 Coeff:      0.298D-03 0.633D-03 0.269D-02 0.121D-01 0.411D-01 0.879D-01
 Coeff:      0.366D+00 0.490D+00
 Gap=     0.129 Goal=   None    Shift=    0.000
 RMSDP=6.99D-09 MaxDP=3.52D-07 DE=-8.40D-11 OVMax= 1.07D-06

 SCF Done:  E(RS-VWN) =  -398.013451783     A.U. after   14 cycles
            NFock= 14  Conv=0.70D-08     -V/T= 2.0028
 KE= 3.969158336938D+02 PE=-1.677345630424D+03 EE= 5.109310730279D+02
 Leave Link  502 at Sun Aug 29 01:13:33 2021, MaxMem= 17179869184 cpu:       369.6
 (Enter /public3/home/sc51754/softwares/g09e01/l801.exe)
 Range of M.O.s used for correlation:     1   338
 NBasis=   338 NAE=    30 NBE=    30 NFC=     0 NFV=     0
 NROrb=    338 NOA=    30 NOB=    30 NVA=   308 NVB=   308

 **** Warning!!: The largest alpha MO coefficient is  0.14329103D+02

 Leave Link  801 at Sun Aug 29 01:13:34 2021, MaxMem= 17179869184 cpu:         4.9
 (Enter /public3/home/sc51754/softwares/g09e01/l1101.exe)
 Using compressed storage, NAtomX=    15.
 Will process     16 centers per pass.
 Leave Link 1101 at Sun Aug 29 01:13:38 2021, MaxMem= 17179869184 cpu:       168.1
 (Enter /public3/home/sc51754/softwares/g09e01/l1102.exe)
 Symmetrizing basis deriv contribution to polar:
 IMax=3 JMax=2 DiffMx= 0.00D+00
 Leave Link 1102 at Sun Aug 29 01:13:39 2021, MaxMem= 17179869184 cpu:        15.0
 (Enter /public3/home/sc51754/softwares/g09e01/l1110.exe)
 Forming Gx(P) for the SCF density, NAtomX=    15.
 Integral derivatives from FoFJK, PRISM(SPDF).
 Do as many integral derivatives as possible in FoFJK.
 G2DrvN: MDV=   17179868960.
 G2DrvN: will do    16 centers at a time, making    1 passes.
 Calling FoFCou, ICntrl=  3507 FMM=F I1Cent=   0 AccDes= 1.00D-12.
 FoFJK:  IHMeth= 1 ICntrl=    3507 DoSepK=F KAlg= 0 I1Cent=   0 FoldK=F
 IRaf=         0 NMat=   1 IRICut=       1 DoRegI=T DoRafI=F ISym2E= 0.
 FoFCou: FMM=F IPFlag=           0 FMFlag=      100000 FMFlg1=           0
         NFxFlg=           0 DoJE=F BraDBF=F KetDBF=F FulRan=T
         wScrn=  0.000000 ICntrl=    3507 IOpCl=  0 I1Cent=           0 NGrid=           0
         NMat0=    1 NMatS0=      1 NMatT0=    0 NMatD0=    1 NMtDS0=    0 NMtDT0=    0
 Symmetry not used in FoFCou.
 End of G2Drv F.D. properties file   721 does not exist.
 End of G2Drv F.D. properties file   722 does not exist.
 End of G2Drv F.D. properties file   788 does not exist.
 Leave Link 1110 at Sun Aug 29 01:13:47 2021, MaxMem= 17179869184 cpu:       467.0
 (Enter /public3/home/sc51754/softwares/g09e01/l1002.exe)
 Minotr:  Closed shell wavefunction.
          IDoAtm=111111111111111
          Direct CPHF calculation.
          Differentiating once with respect to nuclear coordinates.
          Requested convergence is 1.0D-08 RMS, and 1.0D-07 maximum.
          Secondary convergence is 1.0D-12 RMS, and 1.0D-12 maximum.
          NewPWx=T KeepS1=F KeepF1=F KeepIn=T MapXYZ=F SortEE=F KeepMc=T.
          MDV=   17179868692 using IRadAn=       2.
 Generate precomputed XC quadrature information.
 Keep J ints in memory in canonical form, NReq=1669919891.
 FoFCou: FMM=F IPFlag=           0 FMFlag=           0 FMFlg1=           0
         NFxFlg=           0 DoJE=F BraDBF=F KetDBF=F FulRan=T
         wScrn=  0.000000 ICntrl=     600 IOpCl=  0 I1Cent=           0 NGrid=           0
         NMat0=    1 NMatS0=  57291 NMatT0=    0 NMatD0=    1 NMtDS0=    0 NMtDT0=    0
 Symmetry not used in FoFCou.
          Solving linear equations simultaneously, MaxMat=       0.
          There are    48 degrees of freedom in the 1st order CPHF.  IDoFFX=6 NUNeed=     0.
     42 vectors produced by pass  0 Test12= 1.92D-14 2.08D-09 XBig12= 1.77D-01 1.35D-01.
 AX will form    42 AO Fock derivatives at one time.
     42 vectors produced by pass  1 Test12= 1.92D-14 2.08D-09 XBig12= 5.81D-02 5.95D-02.
     42 vectors produced by pass  2 Test12= 1.92D-14 2.08D-09 XBig12= 4.64D-04 2.66D-03.
     42 vectors produced by pass  3 Test12= 1.92D-14 2.08D-09 XBig12= 8.32D-07 9.61D-05.
     42 vectors produced by pass  4 Test12= 1.92D-14 2.08D-09 XBig12= 9.23D-10 5.72D-06.
     22 vectors produced by pass  5 Test12= 1.92D-14 2.08D-09 XBig12= 4.99D-13 8.09D-08.
 InvSVY:  IOpt=1 It=  1 EMax= 1.44D-15
 Solved reduced A of dimension   232 with    42 vectors.
 End of Minotr F.D. properties file   721 does not exist.
 End of Minotr F.D. properties file   722 does not exist.
 End of Minotr F.D. properties file   788 does not exist.
 Leave Link 1002 at Sun Aug 29 01:14:03 2021, MaxMem= 17179869184 cpu:       869.0
 (Enter /public3/home/sc51754/softwares/g09e01/l601.exe)
 Copying SCF densities to generalized density rwf, IOpCl= 0 IROHF=0.

 **********************************************************************

            Population analysis using the SCF density.

 **********************************************************************

 Orbital symmetries:
       Occupied  (A) (A) (A) (A) (A) (A) (A) (A) (A) (A) (A) (A)
                 (A) (A) (A) (A) (A) (A) (A) (A) (A) (A) (A) (A)
                 (A) (A) (A) (A) (A) (A)
       Virtual   (A) (A) (A) (A) (A) (A) (A) (A) (A) (A) (A) (A)
                 (A) (A) (A) (A) (A) (A) (A) (A) (A) (A) (A) (A)
                 (A) (A) (A) (A) (A) (A) (A) (A) (A) (A) (A) (A)
                 (A) (A) (A) (A) (A) (A) (A) (A) (A) (A) (A) (A)
                 (A) (A) (A) (A) (A) (A) (A) (A) (A) (A) (A) (A)
                 (A) (A) (A) (A) (A) (A) (A) (A) (A) (A) (A) (A)
                 (A) (A) (A) (A) (A) (A) (A) (A) (A) (A) (A) (A)
                 (A) (A) (A) (A) (A) (A) (A) (A) (A) (A) (A) (A)
                 (A) (A) (A) (A) (A) (A) (A) (A) (A) (A) (A) (A)
                 (A) (A) (A) (A) (A) (A) (A) (A) (A) (A) (A) (A)
                 (A) (A) (A) (A) (A) (A) (A) (A) (A) (A) (A) (A)
                 (A) (A) (A) (A) (A) (A) (A) (A) (A) (A) (A) (A)
                 (A) (A) (A) (A) (A) (A) (A) (A) (A) (A) (A) (A)
                 (A) (A) (A) (A) (A) (A) (A) (A) (A) (A) (A) (A)
                 (A) (A) (A) (A) (A) (A) (A) (A) (A) (A) (A) (A)
                 (A) (A) (A) (A) (A) (A) (A) (A) (A) (A) (A) (A)
                 (A) (A) (A) (A) (A) (A) (A) (A) (A) (A) (A) (A)
                 (A) (A) (A) (A) (A) (A) (A) (A) (A) (A) (A) (A)
                 (A) (A) (A) (A) (A) (A) (A) (A) (A) (A) (A) (A)
                 (A) (A) (A) (A) (A) (A) (A) (A) (A) (A) (A) (A)
                 (A) (A) (A) (A) (A) (A) (A) (A) (A) (A) (A) (A)
                 (A) (A) (A) (A) (A) (A) (A) (A) (A) (A) (A) (A)
                 (A) (A) (A) (A) (A) (A) (A) (A) (A) (A) (A) (A)
                 (A) (A) (A) (A) (A) (A) (A) (A) (A) (A) (A) (A)
                 (A) (A) (A) (A) (A) (A) (A) (A) (A) (A) (A) (A)
                 (A) (A) (A) (A) (A) (A) (A) (A)
 The electronic state is 1-A.
 Alpha  occ. eigenvalues --  -18.63112 -18.57673 -13.88729  -9.88129  -9.84354
 Alpha  occ. eigenvalues --   -9.81637  -9.80197  -9.80024  -0.99430  -0.93658
 Alpha  occ. eigenvalues --   -0.87986  -0.75842  -0.70001  -0.61401  -0.58412
 Alpha  occ. eigenvalues --   -0.53892  -0.52900  -0.47780  -0.46210  -0.43004
 Alpha  occ. eigenvalues --   -0.42219  -0.40499  -0.38029  -0.36326  -0.34642
 Alpha  occ. eigenvalues --   -0.32406  -0.29869  -0.28570  -0.24769  -0.22315
 Alpha virt. eigenvalues --   -0.09447  -0.05699  -0.02897  -0.00858   0.01379
 Alpha virt. eigenvalues --    0.03124   0.05137   0.06616   0.06807   0.08381
 Alpha virt. eigenvalues --    0.09588   0.11215   0.12620   0.13886   0.14495
 Alpha virt. eigenvalues --    0.14996   0.16386   0.16642   0.19176   0.20417
 Alpha virt. eigenvalues --    0.21845   0.23423   0.23975   0.24272   0.25368
 Alpha virt. eigenvalues --    0.26135   0.26253   0.26711   0.28173   0.28660
 Alpha virt. eigenvalues --    0.29349   0.31733   0.32977   0.33988   0.35069
 Alpha virt. eigenvalues --    0.35947   0.37416   0.38578   0.40230   0.42300
 Alpha virt. eigenvalues --    0.44562   0.46962   0.48136   0.49308   0.51550
 Alpha virt. eigenvalues --    0.52551   0.55933   0.56178   0.56783   0.57712
 Alpha virt. eigenvalues --    0.59675   0.60721   0.62820   0.63706   0.68920
 Alpha virt. eigenvalues --    0.70178   0.72449   0.74520   0.75669   0.77503
 Alpha virt. eigenvalues --    0.81881   0.83837   0.85109   0.85832   0.86542
 Alpha virt. eigenvalues --    0.89148   0.90219   0.93817   0.95797   0.99211
 Alpha virt. eigenvalues --    1.00139   1.02350   1.03934   1.05223   1.07101
 Alpha virt. eigenvalues --    1.07462   1.08553   1.09693   1.10644   1.12587
 Alpha virt. eigenvalues --    1.13548   1.15788   1.16667   1.17357   1.18705
 Alpha virt. eigenvalues --    1.21997   1.22351   1.25373   1.29391   1.33113
 Alpha virt. eigenvalues --    1.33718   1.35084   1.36194   1.40471   1.41269
 Alpha virt. eigenvalues --    1.42343   1.44747   1.45214   1.48051   1.50305
 Alpha virt. eigenvalues --    1.51306   1.53217   1.56043   1.57902   1.59574
 Alpha virt. eigenvalues --    1.60139   1.62010   1.63705   1.66318   1.69129
 Alpha virt. eigenvalues --    1.71190   1.73968   1.75660   1.77741   1.78716
 Alpha virt. eigenvalues --    1.80002   1.81100   1.85257   1.87324   1.91552
 Alpha virt. eigenvalues --    1.92320   1.96506   1.96807   1.98262   2.00591
 Alpha virt. eigenvalues --    2.01927   2.04965   2.07364   2.10016   2.12853
 Alpha virt. eigenvalues --    2.14803   2.16107   2.19156   2.20512   2.23151
 Alpha virt. eigenvalues --    2.25986   2.33683   2.49888   2.54784   2.65250
 Alpha virt. eigenvalues --    2.72146   2.74160   2.78059   2.85061   2.86134
 Alpha virt. eigenvalues --    3.00620   3.03359   3.06454   3.07499   3.11322
 Alpha virt. eigenvalues --    3.11642   3.12774   3.16025   3.20425   3.21002
 Alpha virt. eigenvalues --    3.24889   3.25703   3.28601   3.30357   3.33583
 Alpha virt. eigenvalues --    3.36709   3.38293   3.39588   3.43220   3.46678
 Alpha virt. eigenvalues --    3.47942   3.48650   3.50380   3.52968   3.53442
 Alpha virt. eigenvalues --    3.54747   3.56385   3.59010   3.62179   3.64723
 Alpha virt. eigenvalues --    3.67109   3.67789   3.72064   3.78096   3.78838
 Alpha virt. eigenvalues --    3.82433   3.84768   3.85952   3.86542   3.92015
 Alpha virt. eigenvalues --    3.93724   3.94509   3.96342   3.96683   3.98700
 Alpha virt. eigenvalues --    3.99596   4.00235   4.03128   4.04804   4.06385
 Alpha virt. eigenvalues --    4.06975   4.08527   4.09372   4.11036   4.11314
 Alpha virt. eigenvalues --    4.12774   4.15319   4.17039   4.18051   4.20347
 Alpha virt. eigenvalues --    4.20803   4.22147   4.23427   4.24122   4.24725
 Alpha virt. eigenvalues --    4.26721   4.29337   4.30487   4.32041   4.33128
 Alpha virt. eigenvalues --    4.35492   4.35950   4.36571   4.37280   4.38925
 Alpha virt. eigenvalues --    4.40945   4.42148   4.44921   4.46127   4.47505
 Alpha virt. eigenvalues --    4.51109   4.52550   4.55540   4.57587   4.64728
 Alpha virt. eigenvalues --    4.65002   4.67852   4.71283   4.73430   4.74792
 Alpha virt. eigenvalues --    4.77632   4.78520   4.82268   4.82772   4.86065
 Alpha virt. eigenvalues --    4.88184   4.90119   4.92627   4.94707   4.95862
 Alpha virt. eigenvalues --    5.01596   5.03564   5.08135   5.08995   5.14351
 Alpha virt. eigenvalues --    5.15544   5.17394   5.20606   5.23157   5.25411
 Alpha virt. eigenvalues --    5.25979   5.29524   5.30618   5.32208   5.37296
 Alpha virt. eigenvalues --    5.38082   5.40880   5.41724   5.43231   5.45672
 Alpha virt. eigenvalues --    5.48897   5.51054   5.53702   5.56207   5.60373
 Alpha virt. eigenvalues --    5.62426   5.69727   5.70574   5.80050   5.81496
 Alpha virt. eigenvalues --    5.88540   5.90328   5.98952   6.00769   6.05558
 Alpha virt. eigenvalues --    6.09436   6.12643   6.20406   6.22050   6.29268
 Alpha virt. eigenvalues --    6.33476   6.35998   6.40416   6.46617   6.48959
 Alpha virt. eigenvalues --    6.49717   6.54039   6.59381   6.70103   6.83800
 Alpha virt. eigenvalues --    6.98155   7.02189   7.15569   7.34935   7.63803
 Alpha virt. eigenvalues --    9.34235  11.98830  12.95939  14.97713  16.65942
 Alpha virt. eigenvalues --   18.10461  18.46207  22.56379
          Condensed to atoms (all electrons):
               1          2          3          4          5          6
     1  O    8.201372  -0.098282   0.391157  -0.064421   0.006894   0.009218
     2  N   -0.098282   6.782722   0.365211  -0.016300   0.434886  -0.030977
     3  C    0.391157   0.365211   4.562453   0.465954  -0.059155  -0.052430
     4  C   -0.064421  -0.016300   0.465954   5.030248  -0.060908   0.458299
     5  C    0.006894   0.434886  -0.059155  -0.060908   4.743324  -0.069896
     6  C    0.009218  -0.030977  -0.052430   0.458299  -0.069896   4.892745
     7  C    0.001260  -0.032494  -0.045779  -0.047665   0.486717   0.427152
     8  H    0.192721   0.004304  -0.010554   0.004548  -0.000071  -0.001161
     9  H    0.005838   0.008018  -0.037887   0.429873  -0.001724  -0.032790
    10  H   -0.000845  -0.038975   0.004525  -0.004134   0.430224   0.008940
    11  H   -0.000669  -0.002124   0.010492  -0.032003   0.009026   0.421712
    12  H    0.000060   0.007003  -0.002012   0.008466  -0.024865  -0.035395
    13  O   -0.142271  -0.195875  -0.003911  -0.000936  -0.001810   0.000948
    14  H    0.008288   0.008196   0.001005   0.000471  -0.000469  -0.000123
    15  H    0.002964   0.183057  -0.016346   0.004171  -0.003805  -0.001952
               7          8          9         10         11         12
     1  O    0.001260   0.192721   0.005838  -0.000845  -0.000669   0.000060
     2  N   -0.032494   0.004304   0.008018  -0.038975  -0.002124   0.007003
     3  C   -0.045779  -0.010554  -0.037887   0.004525   0.010492  -0.002012
     4  C   -0.047665   0.004548   0.429873  -0.004134  -0.032003   0.008466
     5  C    0.486717  -0.000071  -0.001724   0.430224   0.009026  -0.024865
     6  C    0.427152  -0.001161  -0.032790   0.008940   0.421712  -0.035395
     7  C    5.069526   0.000497   0.008428  -0.058912  -0.041074   0.424721
     8  H    0.000497   0.348621   0.000458  -0.000006   0.000012  -0.000020
     9  H    0.008428   0.000458   0.532586   0.000275  -0.009802  -0.000003
    10  H   -0.058912  -0.000006   0.000275   0.573368  -0.000363  -0.005122
    11  H   -0.041074   0.000012  -0.009802  -0.000363   0.559278  -0.009137
    12  H    0.424721  -0.000020  -0.000003  -0.005122  -0.009137   0.553986
    13  O   -0.002580   0.241386   0.000263   0.001011  -0.000026   0.000062
    14  H    0.000316  -0.010316  -0.000047  -0.000365   0.000006  -0.000010
    15  H    0.003949  -0.017033  -0.000369  -0.004655   0.000112  -0.000034
              13         14         15
     1  O   -0.142271   0.008288   0.002964
     2  N   -0.195875   0.008196   0.183057
     3  C   -0.003911   0.001005  -0.016346
     4  C   -0.000936   0.000471   0.004171
     5  C   -0.001810  -0.000469  -0.003805
     6  C    0.000948  -0.000123  -0.001952
     7  C   -0.002580   0.000316   0.003949
     8  H    0.241386  -0.010316  -0.017033
     9  H    0.000263  -0.000047  -0.000369
    10  H    0.001011  -0.000365  -0.004655
    11  H   -0.000026   0.000006   0.000112
    12  H    0.000062  -0.000010  -0.000034
    13  O    7.841815   0.346382   0.260030
    14  H    0.346382   0.424579  -0.008765
    15  H    0.260030  -0.008765   0.383688
 Mulliken charges:
               1
     1  O   -0.513282
     2  N   -0.378368
     3  C    0.427277
     4  C   -0.175660
     5  C    0.111633
     6  C    0.005711
     7  C   -0.194059
     8  H    0.246614
     9  H    0.096884
    10  H    0.095036
    11  H    0.094557
    12  H    0.082302
    13  O   -0.344487
    14  H    0.230854
    15  H    0.214987
 Sum of Mulliken charges =  -0.00000
 Mulliken charges with hydrogens summed into heavy atoms:
               1
     1  O   -0.513282
     2  N   -0.378368
     3  C    0.427277
     4  C   -0.078776
     5  C    0.206668
     6  C    0.100269
     7  C   -0.111756
    13  O    0.347968
 APT charges:
               1
     1  O   -0.383596
     2  N   -0.362923
     3  C    0.043892
     4  C   -0.545316
     5  C   -0.355872
     6  C   -0.414161
     7  C   -0.537337
     8  H    0.309577
     9  H    0.481928
    10  H    0.460587
    11  H    0.603494
    12  H    0.612233
    13  O   -0.765961
    14  H    0.683453
    15  H    0.170004
 Sum of APT charges =  -0.00000
 APT charges with hydrogens summed into heavy atoms:
               1
     1  O   -0.383596
     2  N   -0.362923
     3  C    0.043892
     4  C   -0.063389
     5  C    0.104715
     6  C    0.189333
     7  C    0.074896
    13  O    0.397072
 Electronic spatial extent (au):  <R**2>=            948.3628
 Charge=             -0.0000 electrons
 Dipole moment (field-independent basis, Debye):
    X=             -0.9931    Y=             -2.4109    Z=              1.3572  Tot=              2.9395
 Quadrupole moment (field-independent basis, Debye-Ang):
   XX=            -40.6690   YY=            -45.7683   ZZ=            -49.5243
   XY=             -4.8905   XZ=              4.6723   YZ=             -1.4884
 Traceless Quadrupole moment (field-independent basis, Debye-Ang):
   XX=              4.6515   YY=             -0.4477   ZZ=             -4.2038
   XY=             -4.8905   XZ=              4.6723   YZ=             -1.4884
 Octapole moment (field-independent basis, Debye-Ang**2):
  XXX=             19.8916  YYY=            -10.1843  ZZZ=              1.0860  XYY=             -2.9466
  XXY=             -7.3761  XXZ=             15.2815  XZZ=             12.5575  YZZ=             -0.8012
  YYZ=              1.5459  XYZ=             -5.0452
 Hexadecapole moment (field-independent basis, Debye-Ang**3):
 XXXX=           -704.4917 YYYY=           -345.0539 ZZZZ=            -54.9083 XXXY=            -21.3104
 XXXZ=             49.5298 YYYX=            -19.1878 YYYZ=             -1.7220 ZZZX=              4.6947
 ZZZY=             -1.6949 XXYY=           -186.5993 XXZZ=           -147.0063 YYZZ=            -75.9640
 XXYZ=            -15.4904 YYXZ=              5.3952 ZZXY=             -4.7019
 N-N= 3.714852719198D+02 E-N=-1.677345652344D+03  KE= 3.969158336938D+02
  Exact polarizability:   0.000   0.000   0.000   0.000   0.000   0.000
 Approx polarizability: 201.769  16.978 180.326   1.463  -0.877  76.340
 No NMR shielding tensors so no spin-rotation constants.
 Leave Link  601 at Sun Aug 29 01:14:04 2021, MaxMem= 17179869184 cpu:        49.7
 (Enter /public3/home/sc51754/softwares/g09e01/l701.exe)
 Compute integral second derivatives.
 ... and contract with generalized density number  0.
 Leave Link  701 at Sun Aug 29 01:14:07 2021, MaxMem= 17179869184 cpu:       175.0
 (Enter /public3/home/sc51754/softwares/g09e01/l702.exe)
 L702 exits ... SP integral derivatives will be done elsewhere.
 Leave Link  702 at Sun Aug 29 01:14:08 2021, MaxMem= 17179869184 cpu:         3.8
 (Enter /public3/home/sc51754/softwares/g09e01/l703.exe)
 Compute integral second derivatives, UseDBF=F ICtDFT=           0.
 Integral derivatives from FoFJK, PRISM(SPDF).
 Calling FoFJK, ICntrl=    100547 FMM=F ISym2X=0 I1Cent= 0 IOpClX= 0 NMat=1 NMatS=1 NMatT=0.
 FoFJK:  IHMeth= 1 ICntrl=  100547 DoSepK=F KAlg= 0 I1Cent=   0 FoldK=F
 IRaf=         0 NMat=   1 IRICut=       1 DoRegI=T DoRafI=F ISym2E= 0.
 FoFCou: FMM=F IPFlag=           0 FMFlag=      100000 FMFlg1=         800
         NFxFlg=           0 DoJE=F BraDBF=F KetDBF=F FulRan=T
         wScrn=  0.000000 ICntrl=  100547 IOpCl=  0 I1Cent=           0 NGrid=           0
         NMat0=    1 NMatS0=      1 NMatT0=    0 NMatD0=    1 NMtDS0=    0 NMtDT0=    0
 Symmetry not used in FoFCou.
 Leave Link  703 at Sun Aug 29 01:14:26 2021, MaxMem= 17179869184 cpu:      1083.7
 (Enter /public3/home/sc51754/softwares/g09e01/l716.exe)
 Dipole        =-3.90720770D-01-9.48509109D-01 5.33981241D-01
 Polarizability= 0.00000000D+00 0.00000000D+00 0.00000000D+00
                 0.00000000D+00 0.00000000D+00 0.00000000D+00
 ***** Axes restored to original set *****
 -------------------------------------------------------------------
 Center     Atomic                   Forces (Hartrees/Bohr)
 Number     Number              X              Y              Z
 -------------------------------------------------------------------
      1        8          -0.020317919   -0.005497480   -0.000123948
      2        7          -0.030910042   -0.017012388    0.001137677
      3        6           0.040710018    0.038838277   -0.000157687
      4        6          -0.013342431   -0.005136371    0.000032613
      5        6          -0.008189455   -0.004948252    0.000062302
      6        6           0.002248378    0.006838966    0.000006377
      7        6           0.003559462   -0.005961793   -0.000111079
      8        1          -0.028431338    0.012193943    0.001118353
      9        1           0.001414191   -0.000838883   -0.000003519
     10        1          -0.000239319    0.000176887   -0.000006761
     11        1          -0.000428168   -0.000122446    0.000005537
     12        1           0.000520431   -0.000235625   -0.000017271
     13        8           0.067279049   -0.026158943    0.001911365
     14        1           0.007483792    0.001258943    0.000167771
     15        1          -0.021356650    0.006605166   -0.004021732
 -------------------------------------------------------------------
 Cartesian Forces:  Max     0.067279049 RMS     0.016330272
 FormGI is forming the generalized inverse of G from B-inverse, IUseBI=4.
 Leave Link  716 at Sun Aug 29 01:14:27 2021, MaxMem= 17179869184 cpu:        24.7
 (Enter /public3/home/sc51754/softwares/g09e01/l103.exe)

 GradGradGradGradGradGradGradGradGradGradGradGradGradGradGradGradGradGrad
 Berny optimization.
 Red2BG is reusing G-inverse.
 Internal  Forces:  Max     0.038534013 RMS     0.008871626
 Search for a saddle point.
 Step number   1 out of a maximum of  100
 All quantities printed in internal units (Hartrees-Bohrs-Radians)
 Second derivative matrix not updated -- analytic derivatives used.
 ITU=  0
 LST/QST climbing along tangent vector
     Eigenvalues ---    0.00252   0.00462   0.00659   0.01110   0.01344
     Eigenvalues ---    0.01588   0.01764   0.01973   0.02029   0.02222
     Eigenvalues ---    0.02586   0.02968   0.03501   0.05037   0.05420
     Eigenvalues ---    0.08746   0.09420   0.10009   0.10534   0.11130
     Eigenvalues ---    0.12126   0.14689   0.18605   0.18871   0.20498
     Eigenvalues ---    0.23938   0.30002   0.33086   0.33704   0.34190
     Eigenvalues ---    0.34749   0.34895   0.36764   0.42747   0.45973
     Eigenvalues ---    0.46800   0.50655   0.51429   0.553251000.00000
     Eigenvalues --- 1000.000001000.000001000.000001000.000001000.00000
     Eigenvalues --- 1000.000001000.000001000.000001000.000001000.00000
     Eigenvalues --- 1000.000001000.000001000.000001000.000001000.00000
     Eigenvalues --- 1000.000001000.000001000.000001000.000001000.00000
     Eigenvalues --- 1000.000001000.000001000.000001000.000001000.00000
     Eigenvalues --- 1000.000001000.000001000.000001000.000001000.00000
     Eigenvalues --- 1000.000001000.000001000.00000
 Eigenvectors required to have negative eigenvalues:
                          D30       D33       D31       D3        D32
   1                    0.60085  -0.46880   0.39830  -0.33835  -0.25313
                          A21       D13       A23       D12       D1
   1                   -0.14431   0.13666  -0.11489   0.11425   0.05666
 Eigenvalue     1 is   2.52D-03 should be less than     0.000000 Eigenvector:
                          D30       D33       D31       D3        D32
   1                    0.60085  -0.46880   0.39830  -0.33835  -0.25313
                          A21       D13       A23       D12       D1
   1                   -0.14431   0.13666  -0.11489   0.11425   0.05666
 QST in optimization variable space.
 Eigenvectors 1 and   5 swapped, overlap=  1.0000
                        Tangent   TS vect  // Eig F  Eigenval
   1         R1        -0.05706   0.05706   0.00023   0.01344
   2         R2         0.44794  -0.44794   0.00000   0.00462
   3         R3         0.03373  -0.03373   0.00008   0.00659
   4         R4         0.00726  -0.00726  -0.00017   0.01110
   5         R5        -0.49480   0.49480   0.00018   0.00252
   6         R6         0.01744  -0.01744  -0.00005   0.01588
   7         R7        -0.00766   0.00766  -0.00042   0.01764
   8         R8        -0.00016   0.00016  -0.00052   0.01973
   9         R9        -0.00962   0.00962  -0.00113   0.02029
  10         R10       -0.00207   0.00207  -0.00024   0.02222
  11         R11        0.00951  -0.00951   0.00004   0.02586
  12         R12        0.00044  -0.00044   0.00015   0.02968
  13         R13       -0.00103   0.00103   0.00028   0.03501
  14         R14       -0.48248   0.48248  -0.00809   0.05037
  15         R15       -0.00095   0.00095  -0.00613   0.05420
  16         R16        0.49237  -0.49237   0.00381   0.08746
  17         A1        -0.03118   0.03118  -0.00085   0.09420
  18         A2         0.03125  -0.03125   0.00081   0.10009
  19         A3         0.06275  -0.06275   0.01010   0.10534
  20         A4        -0.09405   0.09405  -0.00091   0.11130
  21         A5         0.00039  -0.00039   0.00107   0.12126
  22         A6         0.04153  -0.04153  -0.00530   0.14689
  23         A7        -0.04192   0.04192  -0.00079   0.18605
  24         A8         0.01488  -0.01488   0.00879   0.18871
  25         A9        -0.01360   0.01360   0.00167   0.20498
  26         A10       -0.00128   0.00128   0.00132   0.23938
  27         A11       -0.01324   0.01324   0.02717   0.30002
  28         A12        0.00012  -0.00012  -0.01353   0.33086
  29         A13        0.01312  -0.01312  -0.00217   0.33704
  30         A14        0.00812  -0.00812   0.00064   0.34190
  31         A15       -0.00233   0.00233   0.00208   0.34749
  32         A16       -0.00579   0.00579   0.00049   0.34895
  33         A17        0.00092  -0.00092   0.00802   0.36764
  34         A18       -0.00143   0.00143  -0.00476   0.42747
  35         A19        0.00052  -0.00052   0.00199   0.45973
  36         A20       -0.04845   0.04845  -0.00676   0.46800
  37         A21       -0.10006   0.10006   0.00044   0.50655
  38         A22        0.03792  -0.03792   0.00275   0.51429
  39         A23        0.14620  -0.14620   0.00503   0.55325
  40         A24       -0.02147   0.02147  -0.000001000.00000
  41         D1         0.00816  -0.00816  -0.000001000.00000
  42         D2         0.00871  -0.00871   0.000001000.00000
  43         D3        -0.01572   0.01572   0.000001000.00000
  44         D4         0.00173  -0.00173  -0.000001000.00000
  45         D5         0.00124  -0.00124   0.000001000.00000
  46         D6         0.00823  -0.00823   0.000001000.00000
  47         D7         0.00774  -0.00774  -0.000001000.00000
  48         D8        -0.00066   0.00066  -0.000001000.00000
  49         D9        -0.00071   0.00071   0.000001000.00000
  50         D10       -0.00805   0.00805  -0.000001000.00000
  51         D11       -0.00810   0.00810  -0.000001000.00000
  52         D12       -0.00584   0.00584  -0.000001000.00000
  53         D13        0.00095  -0.00095   0.000001000.00000
  54         D14       -0.00152   0.00152   0.000001000.00000
  55         D15       -0.00113   0.00113  -0.000001000.00000
  56         D16       -0.00099   0.00099  -0.000001000.00000
  57         D17       -0.00061   0.00061   0.000001000.00000
  58         D18        0.00021  -0.00021   0.000001000.00000
  59         D19        0.00034  -0.00034  -0.000001000.00000
  60         D20       -0.00021   0.00021  -0.000001000.00000
  61         D21       -0.00008   0.00008   0.000001000.00000
  62         D22       -0.00019   0.00019  -0.000001000.00000
  63         D23       -0.00013   0.00013   0.000001000.00000
  64         D24       -0.00012   0.00012   0.000001000.00000
  65         D25       -0.00006   0.00006   0.000001000.00000
  66         D26        0.00039  -0.00039  -0.000001000.00000
  67         D27        0.00033  -0.00033   0.000001000.00000
  68         D28        0.00026  -0.00026  -0.000001000.00000
  69         D29        0.00020  -0.00020   0.000001000.00000
  70         D30       -0.13153   0.13153  -0.000001000.00000
  71         D31        0.01821  -0.01821   0.000001000.00000
  72         D32        0.00739  -0.00739  -0.000001000.00000
  73         D33       -0.03478   0.03478   0.000001000.00000
 RFO step:  Lambda0=1.344419990D-02 Lambda=-6.89180752D-03.
 Linear search not attempted -- option 19 set.
 Maximum step size (   0.300) exceeded in Quadratic search.
    -- Step size scaled by   0.005
 Iteration  1 RMS(Cart)=  0.02660590 RMS(Int)=  0.00072822
 Iteration  2 RMS(Cart)=  0.00056783 RMS(Int)=  0.00008377
 Iteration  3 RMS(Cart)=  0.00000079 RMS(Int)=  0.00008376
 ITry= 1 IFail=0 DXMaxC= 1.58D-01 DCOld= 1.00D+10 DXMaxT= 3.00D-01 DXLimC= 3.00D+00 Rises=F
 Variable       Old X    -DE/DX   Delta X   Delta X   Delta X     New X
                                 (Linear)    (Quad)   (Total)
    R1        2.48349  -0.02302   0.00000  -0.01747  -0.01753   2.46596
    R2        2.46130   0.00678   0.00000   0.13542   0.13532   2.59663
    R3        2.52440   0.01907   0.00000   0.01033   0.01039   2.53479
    R4        2.51362   0.00575   0.00000   0.00221   0.00222   2.51584
    R5        2.43774   0.02197   0.00000  -0.14999  -0.14989   2.28785
    R6        2.63951   0.00760   0.00000   0.00534   0.00534   2.64485
    R7        2.59251  -0.00129   0.00000  -0.00234  -0.00235   2.59016
    R8        2.06053  -0.00088   0.00000  -0.00005  -0.00005   2.06048
    R9        2.59810  -0.00479   0.00000  -0.00294  -0.00295   2.59515
   R10        2.06749  -0.00021   0.00000  -0.00063  -0.00063   2.06686
   R11        2.62634   0.00564   0.00000   0.00291   0.00289   2.62923
   R12        2.06416   0.00033   0.00000   0.00014   0.00014   2.06429
   R13        2.05930  -0.00028   0.00000  -0.00031  -0.00031   2.05898
   R14        2.07870   0.02727   0.00000  -0.14583  -0.14590   1.93280
   R15        1.83122   0.00354   0.00000  -0.00029  -0.00029   1.83094
   R16        2.07870   0.03853   0.00000   0.14963   0.14969   2.22839
    A1        1.86309   0.00522   0.00000  -0.00950  -0.00970   1.85340
    A2        2.08346   0.00561   0.00000   0.00957   0.00953   2.09298
    A3        1.87914  -0.00776   0.00000   0.01894   0.01909   1.89823
    A4        2.32055   0.00215   0.00000  -0.02853  -0.02863   2.29192
    A5        2.07609   0.00689   0.00000   0.00011   0.00010   2.07619
    A6        2.08892   0.00513   0.00000   0.01273   0.01270   2.10163
    A7        2.11817  -0.01202   0.00000  -0.01284  -0.01281   2.10537
    A8        2.06958   0.00419   0.00000   0.00455   0.00457   2.07414
    A9        2.07357  -0.00353   0.00000  -0.00416  -0.00417   2.06940
   A10        2.14003  -0.00066   0.00000  -0.00039  -0.00040   2.13964
   A11        2.14616  -0.00159   0.00000  -0.00405  -0.00403   2.14212
   A12        2.02502   0.00102   0.00000   0.00004   0.00003   2.02505
   A13        2.11201   0.00057   0.00000   0.00401   0.00400   2.11601
   A14        2.09313   0.00287   0.00000   0.00249   0.00248   2.09561
   A15        2.09106  -0.00114   0.00000  -0.00071  -0.00071   2.09035
   A16        2.09899  -0.00173   0.00000  -0.00177  -0.00177   2.09722
   A17        2.05588   0.00093   0.00000   0.00027   0.00027   2.05614
   A18        2.10309  -0.00097   0.00000  -0.00043  -0.00043   2.10266
   A19        2.12421   0.00004   0.00000   0.00016   0.00016   2.12438
   A20        2.50946   0.01795   0.00000  -0.01415  -0.01427   2.49519
   A21        1.95805   0.00545   0.00000  -0.03035  -0.03059   1.92746
   A22        1.74597  -0.03071   0.00000   0.01080   0.01082   1.75679
   A23        1.86716   0.01289   0.00000   0.04454   0.04476   1.91193
   A24        2.48748   0.00840   0.00000  -0.00622  -0.00605   2.48143
    D1        0.00605   0.00049   0.00000   0.00248   0.00244   0.00849
    D2       -3.13432   0.00023   0.00000   0.00264   0.00259  -3.13173
    D3        0.04418   0.00082   0.00000  -0.00472  -0.00457   0.03960
    D4       -3.13795  -0.00038   0.00000   0.00052   0.00050  -3.13745
    D5        0.00240  -0.00009   0.00000   0.00037   0.00037   0.00276
    D6        0.01138  -0.00027   0.00000   0.00250   0.00249   0.01387
    D7       -3.13146   0.00002   0.00000   0.00235   0.00235  -3.12910
    D8       -0.00175   0.00016   0.00000  -0.00020  -0.00020  -0.00196
    D9        3.13758   0.00008   0.00000  -0.00022  -0.00023   3.13734
   D10        3.12976  -0.00003   0.00000  -0.00244  -0.00239   3.12737
   D11       -0.01410  -0.00011   0.00000  -0.00246  -0.00242  -0.01651
   D12       -0.10219  -0.00111   0.00000  -0.00183  -0.00177  -0.10397
   D13        3.04862  -0.00099   0.00000   0.00023   0.00024   3.04885
[...]
 ! A9    A(3,4,9)              118.0666         -DE/DX =    0.0                 !
 ! A10   A(6,4,9)              122.542          -DE/DX =    0.0                 !
 ! A11   A(2,5,7)              121.8247         -DE/DX =    0.0                 !
 ! A12   A(2,5,10)             116.1623         -DE/DX =    0.0                 !
 ! A13   A(7,5,10)             122.0126         -DE/DX =    0.0                 !
 ! A14   A(4,6,7)              120.6541         -DE/DX =    0.0                 !
 ! A15   A(4,6,11)             119.5599         -DE/DX =    0.0                 !
 ! A16   A(7,6,11)             119.786          -DE/DX =    0.0                 !
 ! A17   A(5,7,6)              117.7961         -DE/DX =    0.0                 !
 ! A18   A(5,7,12)             120.4703         -DE/DX =    0.0                 !
 ! A19   A(6,7,12)             121.7335         -DE/DX =    0.0                 !
 ! A20   A(1,8,13)             157.6097         -DE/DX =    0.0                 !
 ! A21   A(8,13,14)            112.3596         -DE/DX =    0.0                 !
 ! A22   A(8,13,15)             82.506          -DE/DX =    0.0                 !
 ! A23   A(14,13,15)           114.1732         -DE/DX =    0.0                 !
 ! A24   A(2,15,13)            149.774          -DE/DX =    0.0                 !
 ! D1    D(8,1,3,2)             -0.1246         -DE/DX =    0.0                 !
 ! D2    D(8,1,3,4)            179.958          -DE/DX =    0.0                 !
 ! D3    D(3,1,8,13)             5.8469         -DE/DX =    0.0                 !
 ! D4    D(5,2,3,1)           -179.8005         -DE/DX =    0.0                 !
 ! D5    D(5,2,3,4)              0.1209         -DE/DX =    0.0                 !
 ! D6    D(15,2,3,1)             0.9436         -DE/DX =    0.0                 !
 ! D7    D(15,2,3,4)          -179.135          -DE/DX =    0.0                 !
 ! D8    D(3,2,5,7)             -0.0599         -DE/DX =    0.0                 !
 ! D9    D(3,2,5,10)           179.7321         -DE/DX =    0.0                 !
 ! D10   D(15,2,5,7)           178.9735         -DE/DX =    0.0                 !
 ! D11   D(15,2,5,10)           -1.2344         -DE/DX =    0.0                 !
 ! D12   D(3,2,15,13)           -7.5905         -DE/DX =    0.0                 !
 ! D13   D(5,2,15,13)          173.2633         -DE/DX =    0.0                 !
 ! D14   D(1,3,4,6)            179.7989         -DE/DX =    0.0                 !
 ! D15   D(1,3,4,9)             -0.0411         -DE/DX =    0.0                 !
 ! D16   D(2,3,4,6)             -0.1183         -DE/DX =    0.0                 !
 ! D17   D(2,3,4,9)           -179.9583         -DE/DX =    0.0                 !
 ! D18   D(3,4,6,7)              0.0573         -DE/DX =    0.0                 !
 ! D19   D(3,4,6,11)          -179.8794         -DE/DX =    0.0                 !
 ! D20   D(9,4,6,7)            179.8898         -DE/DX =    0.0                 !
 ! D21   D(9,4,6,11)            -0.0469         -DE/DX =    0.0                 !
 ! D22   D(2,5,7,6)             -0.0052         -DE/DX =    0.0                 !
 ! D23   D(2,5,7,12)           179.8766         -DE/DX =    0.0                 !
 ! D24   D(10,5,7,6)          -179.7851         -DE/DX =    0.0                 !
 ! D25   D(10,5,7,12)            0.0968         -DE/DX =    0.0                 !
 ! D26   D(4,6,7,5)              0.0047         -DE/DX =    0.0                 !
 ! D27   D(4,6,7,12)          -179.8756         -DE/DX =    0.0                 !
 ! D28   D(11,6,7,5)           179.9412         -DE/DX =    0.0                 !
 ! D29   D(11,6,7,12)            0.061          -DE/DX =    0.0                 !
 ! D30   D(1,8,13,14)         -121.181          -DE/DX =    0.0                 !
 ! D31   D(1,8,13,15)           -8.0714         -DE/DX =    0.0                 !
 ! D32   D(8,13,15,2)            8.5375         -DE/DX =    0.0                 !
 ! D33   D(14,13,15,2)         119.7317         -DE/DX =    0.0                 !
 --------------------------------------------------------------------------------
 GradGradGradGradGradGradGradGradGradGradGradGradGradGradGradGradGradGrad

 Leave Link  103 at Sun Aug 29 01:29:15 2021, MaxMem= 17179869184 cpu:       111.8
 (Enter /public3/home/sc51754/softwares/g09e01/l9999.exe)
 1\1\GINC-J2305\Freq\RSVWN\Gen\C5H7N1O2\SC51754\29-Aug-2021\0\\#P Geom=
 AllCheck Guess=TCheck SCRF=Check GenChk RSVWN/ChkBas Freq\\HY_H2O_SVWN
 _PC2_OPT_FREQ\\0,1\O,1.3148495826,1.3728155922,-0.0058629952\N,0.28648
 60135,-0.6470827001,-0.006904394\C,0.2173530381,0.7080176812,-0.003902
 5901\C,-1.0501493455,1.3146452236,-0.0005010234\C,-0.8074920213,-1.406
 2207907,-0.0090881416\C,-2.1706799148,0.5290904857,-0.0027725755\C,-2.
 064165345,-0.8619584074,-0.007209789\H,2.1891426794,0.5483981161,-0.00
 76960854\H,-1.0975250845,2.4037987168,0.0011981598\H,-0.6441570382,-2.
 4868014396,-0.0160207724\H,-3.1575987014,0.9978690671,-0.002138608\H,-
 2.9439914459,-1.5038170658,-0.0110846755\O,2.6962410764,-0.5698660183,
 -0.0565716518\H,3.21773193,-0.7730816543,0.7345691421\H,1.5156767567,-
 0.9308920365,0.00876089\\Version=EM64L-G09RevE.01\State=1-A\HF=-398.02
 96653\RMSD=5.653e-09\RMSF=1.239e-05\ZeroPoint=0.1110113\Thermal=0.1177
 135\Dipole=-0.9421732,-0.6655933,0.5444569\DipoleDeriv=-1.8177924,-0.2
 795478,-0.0166501,-0.1441731,-0.7897973,0.0048107,-0.0198767,0.0052139
 ,-0.3217294,-1.2261947,0.1809956,-0.0100752,-0.4354902,-0.4659956,-0.0
 017967,-0.0478601,0.0033112,-0.1394622,1.6061698,0.6541986,0.0045053,0
 .6278433,0.5437444,0.0031014,-0.0043516,-0.0028193,0.1789619,-0.595626
 9,-0.3614321,-0.0035441,0.1331531,0.0193885,-0.0000115,0.0113649,-0.00
 23966,-0.1594207,0.5432084,-0.256236,0.0003014,0.2704279,0.2108968,0.0
 087173,0.0035243,0.0052598,-0.0244286,0.2193067,0.1057546,0.0005307,0.
 0854243,0.4260006,0.0019682,-0.0019601,0.0007901,-0.0941827,-0.2563256
 ,0.2746188,-0.0004429,0.0173716,-0.4073533,-0.001468,0.0094093,-0.0005
 074,-0.1760432,1.0188605,-0.4017598,0.0031812,-0.9084041,0.7194241,-0.
 0376427,-0.005933,-0.0259897,0.1950002,0.073924,-0.0120365,-0.0002818,
 0.0037927,0.0049992,-0.0004037,0.0001624,-0.0002325,0.1493616,0.071154
 4,0.0176072,-0.0007492,-0.0247066,-0.0374778,-0.0006321,-0.0052237,-0.
 0011101,0.1282722,-0.0198741,0.0552503,-0.0000705,0.0557474,0.0695806,
 -0.0002483,-0.0021326,0.0004853,0.1287016,0.0114498,-0.0516497,-0.0007
 393,-0.0498901,0.0320508,-0.0003584,-0.0007011,-0.0003825,0.1574176,-1
 .6857356,0.2363217,0.0067874,0.3624508,-0.7657826,-0.005314,0.0774489,
 -0.0254583,-0.3743791,0.3015727,-0.0033376,-0.0187132,-0.0182234,0.276
 0256,0.0088564,-0.0420392,0.0222283,0.1882115,1.755903,-0.1587473,0.03
 59604,0.0246764,0.164296,0.0204214,0.0281682,0.0216078,0.1637195\Polar
 =107.4305454,2.7502388,86.3176454,1.5912471,-0.3755267,44.7662174\PG=C
 01 [X(C5H7N1O2)]\NImag=1\\0.47263043,0.14895517,0.32985113,-0.00094858
 ,-0.00147546,0.05134480,0.02008530,-0.05941966,0.00058779,0.61688261,-
 0.04020845,-0.05481081,-0.00025640,0.13488500,0.61837321,0.00141182,-0
 .00050440,0.01362422,0.00247923,0.00134247,0.10008189,-0.34919544,-0.1
 4347561,0.00063268,-0.16083246,0.01680883,-0.00163710,0.81358331,-0.14
 316996,-0.19142412,0.00104413,0.03712112,-0.26281049,-0.00080323,0.039
 80508,0.64451606,0.00000991,0.00016268,-0.06430368,-0.00025724,-0.0005
 6912,-0.07101948,0.00006195,0.00070260,0.19175466,-0.07245078,0.007134
 42,0.00013717,0.02776757,0.05653752,0.00061761,-0.24065843,0.06053478,
 0.00004126,0.67960961,-0.02604822,0.02044817,0.00001696,0.03390564,-0.
 02969748,-0.00006472,0.10090342,-0.15831620,-0.00039553,0.04649569,0.7
 3792945,0.00023100,0.00059041,0.01352486,-0.00032765,-0.00020797,0.012
 99906,0.00056767,-0.00070184,-0.07427171,-0.00024821,0.00140887,0.1136
 7331,-0.01245388,0.01172405,-0.00014368,-0.28999249,-0.10750934,-0.000
 17272,0.04191165,-0.07166936,-0.00016050,-0.05304106,-0.00155918,0.000
 03761,0.71213836,-0.00262321,-0.00061206,-0.00014893,-0.12451559,-0.20
 646526,-0.00021438,-0.02565814,-0.05234804,-0.00001013,-0.00657718,0.0
 0057009,0.00008265,-0.02753455,0.74368069,-0.00011516,0.00009809,0.007
 94706,-0.00056842,-0.00036050,-0.05454742,-0.00006197,-0.00015525,-0.0
 0175689,-0.00006519,0.00007679,-0.00344756,0.00000873,0.00283236,0.141
 87272,0.00432555,0.00299013,-0.00005121,-0.00903547,-0.01567742,-0.000
 29826,-0.05044637,0.00122708,0.00008820,-0.30691216,-0.15094866,-0.000
 31717,0.01632272,0.03384535,0.00019151,0.72954453,0.01907372,-0.007016
 43,0.00005272,-0.03341520,-0.04366835,-0.00023698,-0.03103457,0.058454
 64,0.00027989,-0.10650769,-0.20991450,-0.00038016,0.07345621,-0.020314
 31,-0.00011460,0.00077240,0.67182137,0.00005130,-0.00004689,0.00437240
 ,0.00002308,-0.00010650,-0.00690578,-0.00014188,0.00018224,0.00159708,
 -0.00032465,-0.00044755,-0.05354920,0.00025894,-0.00010245,0.00850321,
 0.00018781,0.00151482,0.13486980,0.00492274,-0.00626180,0.00005664,-0.
 07554082,-0.03587580,-0.00017199,-0.02107851,0.03768745,0.00010206,0.0
 3294670,-0.02682360,-0.00013068,-0.32786434,0.12309716,0.00035003,-0.1
 1777637,-0.00799726,-0.00010027,0.73619506,-0.01381482,0.00257284,-0.0
 0004543,0.00570796,0.04649683,0.00025938,0.02800721,-0.03362453,-0.000
 14249,-0.05348596,-0.03472579,-0.00013782,0.07448032,-0.16491305,-0.00
 049282,0.04239875,-0.32555925,-0.00074814,0.02805171,0.67410027,-0.000
 12244,0.00012835,-0.00092065,-0.00027885,0.00007125,0.01747532,0.00021
 619,-0.00018080,-0.00865853,-0.00021949,-0.00020994,0.00737978,0.00007
 480,-0.00030521,-0.06348277,0.00012633,-0.00089397,-0.05911303,0.00058
 363,0.00218653,0.11258003,-0.01168835,-0.00284804,-0.00119544,-0.01298
 340,0.01371157,-0.00131337,-0.05980157,-0.01505021,0.00018530,0.009983
 49,0.00103004,0.00015244,0.00182297,0.00274157,0.00003961,-0.00184296,
 -0.00421746,-0.00002494,-0.00085324,0.00361820,0.00017212,0.07943310,-
 0.02341112,-0.05053697,0.00078521,0.01535144,-0.01302802,0.00164505,0.
 02442557,0.04416873,-0.00015018,-0.01659445,-0.00532105,-0.00014670,-0
 .00382046,-0.00519270,-0.00013637,0.00191041,0.00763776,0.00003125,0.0
 0279249,-0.00539575,-0.00019190,0.03606222,0.06403470,0.00150436,-0.00
 146093,-0.03277342,-0.00100610,0.00015448,-0.00181152,-0.00091853,-0.0
 0057568,0.00121992,0.00030067,0.00004275,0.00376840,-0.00000083,0.0001
 3719,-0.00077041,-0.00008137,-0.00014622,0.00079194,-0.00011221,0.0000
 8593,0.00036787,0.00532204,0.00493835,0.06304143,0.00256011,-0.0021158
 0,-0.00000274,-0.00574045,0.00412597,-0.00003200,0.00415456,0.02697133
 ,0.00003421,-0.05249905,0.01504324,0.00008392,-0.00183494,-0.00090351,
 -0.00000534,0.00522411,-0.02511976,-0.00004843,-0.00345397,-0.00246067
 ,-0.00000123,-0.00077564,0.00092672,-0.00003520,0.04976842,-0.00080306
 ,0.00112369,0.00000965,0.00274071,-0.00057628,0.00000503,-0.00316028,-
 0.01030105,0.00000680,0.01671640,-0.32868009,-0.00053277,0.00078202,0.
 00098749,0.00000545,0.00227275,-0.01109227,-0.00001036,-0.00305991,0.0
 0138134,-0.00000007,0.00044962,-0.00046402,0.00001280,-0.01555704,0.34
 715728,-0.00000575,-0.00002507,-0.00237240,0.00002144,-0.00000313,0.00
 494761,0.00001473,-0.00001373,0.00281819,0.00004578,-0.00041346,-0.031
 40411,0.00000799,0.00000285,-0.00052247,-0.00000297,-0.00006129,0.0016
 7524,-0.00001852,-0.00003810,0.00852113,-0.00001738,0.00001427,-0.0003
 6725,-0.00004740,0.00054252,0.02230827,-0.00101839,-0.00136753,-0.0000
 0495,0.00222122,-0.03246442,-0.00018040,-0.00259012,-0.00137528,0.0000
 0002,-0.00057325,-0.00063829,0.00000459,-0.06102034,0.04959517,0.00028
 385,-0.00506860,0.00170011,-0.00000495,0.00188793,0.02583544,0.0001479
 8,0.00078773,-0.00080024,0.00001955,0.00012712,0.00000356,-0.00000300,
 0.06400346,-0.00033433,-0.00130028,0.00001538,-0.00501630,-0.01927959,
 -0.00011151,-0.00212599,0.00323429,-0.00009543,0.00024716,0.00046526,0
 .00000130,0.04660127,-0.31153543,-0.00165521,0.00234730,0.00052920,-0.
 00004172,-0.00055113,-0.00650920,-0.00009259,0.00025312,-0.00017413,0.
 00000472,0.00006326,-0.00009895,0.00000914,-0.04176150,0.33454205,0.00
 004871,-0.00005034,-0.00003510,0.00018502,0.00006942,-0.00067496,-0.00
 004882,0.00000832,0.00825488,0.00006882,0.00002157,-0.00047210,0.00021
 917,-0.00196851,-0.03685150,-0.00004776,-0.00005267,0.00696016,0.00000
 203,0.00001942,0.00621949,-0.00008322,0.00009015,-0.00013784,-0.000003
 64,0.00000181,-0.00145494,-0.00022269,0.00192145,0.02367535,-0.0017561
 6,0.00066515,0.00000564,0.00026034,-0.00064892,0.00000971,-0.00099486,
 -0.00354784,-0.00003411,-0.01834810,0.01173689,0.00000199,0.00167666,0
 .00031007,-0.00001051,-0.27237804,0.10444044,0.00016493,0.00144733,-0.
 00091231,-0.00002043,0.00031470,-0.00065655,0.00000489,0.00112253,-0.0
 0000529,0.00000802,-0.00001320,-0.00014855,0.00000151,0.28835724,-0.00
 078186,0.00052064,0.00000131,-0.00104527,-0.00024695,-0.00000445,-0.00
 319648,-0.00151487,-0.00002624,-0.01642619,0.01047576,0.00000578,-0.00
 004494,-0.00600743,-0.00003705,0.10486916,-0.10294423,-0.00010713,0.02
 712962,-0.00781812,-0.00001110,0.00000016,-0.00022847,0.00000294,0.000
 40581,0.00074286,0.00001275,0.00135528,-0.00040254,0.00000334,-0.11182
 542,0.10606770,-0.00000892,-0.00007659,-0.00103081,0.00006245,0.000004
 89,-0.00205551,-0.00001919,0.00000333,0.01020977,-0.00001394,0.0000742
 6,0.00527902,0.00001642,-0.00006515,0.00622174,0.00006022,-0.00011083,
 -0.03894576,0.00007857,-0.00002318,0.00434786,-0.00003293,0.00003222,-
 0.00043286,-0.00000200,-0.00000337,-0.00467326,0.00000060,0.00000301,-
 0.00039662,-0.00014163,0.00014365,0.02470540,0.00061986,-0.00021622,0.
 00001243,-0.00446551,0.00332305,0.00000865,-0.00033908,0.00120496,-0.0
 0001270,0.00131202,0.00135672,-0.00000890,-0.01607983,-0.01874474,-0.0
 0013913,0.00629027,0.00382720,0.00001018,-0.23519392,-0.13217287,-0.00
 077785,-0.00023922,0.00052749,-0.00002200,0.00019159,0.00030998,-0.000
 00124,0.00072223,0.00006630,0.00001134,0.00050149,-0.00039264,0.000011
 12,0.24633826,-0.00034375,0.00047927,0.00000180,0.00386818,0.00014905,
 -0.00002799,0.00114216,-0.00135011,0.00000023,0.00188108,-0.00451881,-
 0.00003410,0.01093296,0.01023952,0.00006741,-0.02443170,-0.01222608,-0
 .00008778,-0.13345147,-0.14807862,-0.00066869,0.00013774,-0.00027889,0
 .00000881,-0.00111684,-0.00042444,-0.00000416,-0.00051686,0.00042386,0
 .00001644,0.00017748,0.00119573,0.00001860,0.14181650,0.15388727,0.000
 00678,-0.00004534,-0.00091273,-0.00001366,-0.00005552,0.00777207,-0.00
 001583,0.00003812,-0.00019703,-0.00000146,-0.00002977,0.00543242,0.000
 04762,0.00002640,-0.00112152,-0.00007253,0.00000888,0.00017186,-0.0008
 4457,-0.00074133,-0.02772212,0.00001120,-0.00001262,-0.00000745,-0.000
 00583,0.00000032,0.00055752,0.00000096,0.00003105,-0.00357515,0.000006
 83,0.00001452,-0.00292222,0.00087684,0.00072645,0.02193286,-0.01642184
 ,0.03785153,0.00077081,-0.08118806,-0.00627608,-0.00320612,-0.00305342
 ,-0.00544061,0.00033749,0.00063525,0.00153072,0.00021197,-0.00120636,0
 .01370569,-0.00012321,-0.00080086,-0.00171224,-0.00007677,-0.00528951,
 -0.00107626,0.00034042,-0.03254776,0.01252053,-0.00322923,-0.00053353,
 0.00031504,-0.00001201,-0.00040877,-0.00102962,-0.00016606,-0.00018604
 ,0.00002806,-0.00003136,-0.00118050,0.00043262,0.00004603,0.31165109,0
 .08111515,-0.04499282,0.00394193,-0.02102357,0.02053425,-0.00392019,-0
 .02955301,-0.02960135,0.00025801,0.01049784,0.00501305,-0.00038261,0.0
 0405750,0.00409066,-0.00003546,-0.00118785,-0.00518891,-0.00003846,-0.
 00235049,0.00363854,0.00029205,-0.02827210,-0.02330904,-0.02210232,-0.
 00113313,0.00054105,-0.00003414,0.00068690,-0.00009916,-0.00010053,0.0
 0039381,0.00016389,0.00006500,-0.00036539,0.00024774,0.00005680,-0.082
 31318,0.14782863,-0.00405582,0.00575962,0.01448989,-0.00725512,-0.0006
 2723,0.01525323,0.00131189,-0.00050411,-0.00042249,-0.00023181,0.00003
 323,-0.00191284,-0.00035691,0.00056064,0.00073221,0.00012292,-0.000033
 98,0.00016794,-0.00016398,-0.00018163,-0.00133273,-0.00335302,-0.00800
 791,-0.03675770,0.00002911,-0.00000352,0.00015149,-0.00000240,-0.00013
 030,0.00057042,0.00000240,0.00001176,0.00025504,-0.00009325,-0.0000069
 7,-0.00020524,0.21614772,-0.08480764,0.38572946,0.00158406,0.00146071,
 0.00142984,-0.00700151,-0.00165824,0.00394735,-0.00074719,-0.00120539,
 -0.00058529,0.00017235,0.00015048,-0.00049374,-0.00079559,0.00099736,0
 .00006417,0.00005278,-0.00016035,0.00007042,-0.00026269,-0.00025127,-0
 .00037525,-0.00459225,-0.00015841,-0.00445736,0.00000996,0.00004184,0.
 00000871,-0.00008277,-0.00014816,0.00015242,0.00001537,0.00000111,0.00
 007087,-0.00010278,0.00003439,-0.00003523,-0.15338940,0.04964553,-0.20
 771547,0.16332370,0.00603797,-0.00679283,-0.00386035,-0.00526309,0.001
 10180,0.00183458,-0.00152867,-0.00175117,-0.00009681,0.00045640,0.0002
 0317,0.00041471,0.00010118,0.00092182,-0.00001904,-0.00005275,-0.00018
 804,0.00000307,-0.00034804,-0.00003656,-0.00009194,0.00380108,0.007840
 32,0.01783036,-0.00007246,0.00004759,0.00000990,-0.00006538,-0.0001288
 0,-0.00000633,0.00002163,-0.00000042,-0.00006623,-0.00008738,0.0000287
 1,-0.00001871,0.04808069,-0.04531646,0.08024526,-0.05609788,0.04270725
 ,0.00343610,-0.00362197,0.00014966,0.00499985,-0.00000441,0.00013926,-
 0.00058154,-0.00009685,-0.00002931,0.00009694,0.00000819,-0.00006098,0
 .00021772,-0.00041645,0.00001296,0.00003015,0.00002988,-0.00000862,0.0
 0021513,0.00007912,-0.00002385,-0.00121375,0.00328361,-0.00024462,0.00
 001324,0.00000119,0.00001118,-0.00001797,0.00008225,0.00004208,0.00000
 834,-0.00000602,0.00001915,0.00007670,0.00000157,0.00000454,-0.2261534
 6,0.08975956,-0.34055789,0.22308924,-0.08757290,0.34015917,-0.04174322
 ,0.00492351,-0.00128640,-0.02043687,0.01092674,-0.00146240,0.03008791,
 0.03690686,0.00018945,-0.00794415,-0.00613488,0.00023516,-0.00958352,-
 0.01773545,0.00015104,0.00250088,0.00689445,-0.00004477,0.00991361,-0.
 00392544,0.00013407,0.03298240,-0.04907564,0.00271131,0.00167920,-0.00
 104633,0.00000160,0.00102574,0.00153716,-0.00011684,-0.00001925,-0.000
 07639,-0.00005028,0.00162513,-0.00056250,-0.00000716,-0.01608028,0.019
 80198,0.00561374,0.00181595,0.00501669,-0.00421670,0.01417647,-0.00364
 322,0.00249057,-0.00008250,0.01611864,-0.05607190,0.00080134,0.0286404
 7,-0.00733179,0.00007572,-0.00090984,-0.00393102,0.00002024,-0.0099976
 9,0.00689800,-0.00007381,-0.00033493,-0.00033061,0.00000562,-0.0020389
 2,-0.00152895,-0.00003196,-0.01141750,-0.01975247,0.00106681,0.0009429
 0,-0.00034422,0.00000164,-0.00018696,0.00033342,0.00002646,-0.00000060
 ,-0.00000357,0.00000039,-0.00045296,0.00022581,0.00000075,-0.01661689,
 -0.03355008,0.00769279,0.00734827,0.00136363,-0.00152677,-0.00745076,0
 .11153318,-0.00144330,0.00056785,-0.00310411,0.00134818,0.00054826,-0.
 03527798,0.00061975,0.00105274,0.00480461,-0.00020349,-0.00012164,0.00
 306166,-0.00005436,-0.00041089,-0.00278934,0.00006414,0.00014452,-0.00
 058723,0.00015413,-0.00007943,0.00436220,0.00135132,-0.00217442,0.0041
 1351,0.00002333,-0.00003548,-0.00019621,-0.00002120,0.00005845,-0.0021
 2416,-0.00000760,-0.00000405,-0.00058092,0.00004781,-0.00001162,0.0007
 9218,0.01514380,0.01704801,-0.03616079,-0.01517069,-0.00860557,0.00038
 728,-0.00185182,-0.00797672,0.06329929\\-0.00002813,0.00000880,-0.0000
 0178,-0.00000701,0.00002291,0.00001428,0.00001606,-0.00000252,0.000000
 69,0.00000020,0.00000106,-0.00000015,-0.00000108,-0.00000220,-0.000004
 62,0.00000101,0.00000583,0.00000075,-0.00000026,0.00000173,-0.00000161
 ,0.00000367,0.00001485,0.00000313,0.00000411,0.00000162,0.00000107,-0.
 00000362,0.00000103,0.00000090,0.00000156,0.00000499,0.00000154,-0.000
 00215,0.00000438,-0.00000019,-0.00001644,-0.00005299,0.00001494,0.0000
 1134,0.00000367,-0.00000666,0.00002075,-0.00001316,-0.00002230\\\@


 Other things may change us, but we start and end with family.
 -- Anthony Brandt
 Job cpu time:       0 days  0 hours 57 minutes 58.2 seconds.
 File lengths (MBytes):  RWF=    137 Int=      0 D2E=      0 Chk=      9 Scr=      1
 Normal termination of Gaussian 09 at Sun Aug 29 01:29:15 2021.
