 Entering Gaussian System, Link 0=g09
 AtFile(1): pc-2.gbs
            -H     0
            S    4   1.00
                  0.754230D+02           0.240650D-02
                  0.113500D+02           0.184870D-01
                  0.259930D+01           0.897420D-01
                  0.735130D+00           0.281110D+00
            S    1   1.00
                  0.231670D+00           0.100000D+01
            S    1   1.00
                  0.741470D-01           0.100000D+01
            P    1   1.00
                  0.160000D+01           0.100000D+01
            P    1   1.00
                  0.450000D+00           0.100000D+01
            D    1   1.00
                  0.125000D+01           0.100000D+01
            ****
            -C     0
            S    7   1.00
                  0.785710D+04           0.568250D-03
                  0.117870D+04           0.439150D-02
                  0.268320D+03           0.225040D-01
                  0.759480D+02           0.866530D-01
                  0.245590D+02           0.244050D+00
                  0.862120D+01           0.441480D+00
                  0.312780D+01           0.353320D+00
            S    7   1.00
                  0.117870D+04          -0.594920D-06
                  0.268320D+03          -0.627480D-04
                  0.759480D+02          -0.757730D-03
                  0.245590D+02          -0.733080D-02
                  0.862120D+01          -0.389320D-01
                  0.312780D+01          -0.889080D-01
                  0.822020D+00           0.216890D+00
            S    1   1.00
                  0.330170D+00           0.100000D+01
            S    1   1.00
                  0.114630D+00           0.100000D+01
            P    4   1.00
                  0.337750D+02           0.602940D-02
                  0.767660D+01           0.432280D-01
                  0.223570D+01           0.163010D+00
                  0.764470D+00           0.365040D+00
            P    1   1.00
                  0.262320D+00           0.100000D+01
            P    1   1.00
                  0.846380D-01           0.100000D+01
            D    1   1.00
                  0.140000D+01           0.100000D+01
            D    1   1.00
                  0.450000D+00           0.100000D+01
            F    1   1.00
                  0.950000D+00           0.100000D+01
            ****
            -N     0
            S    7   1.00
                  0.111010D+05           0.545700D-03
                  0.166530D+04           0.421810D-02
                  0.379080D+03           0.216450D-01
                  0.107300D+03           0.837760D-01
                  0.347470D+02           0.238810D+00
                  0.122490D+02           0.439940D+00
                  0.447430D+01           0.363640D+00
            S    7   1.00
                  0.166530D+04          -0.150060D-05
                  0.379080D+03          -0.587530D-04
                  0.107300D+03          -0.774530D-03
                  0.347470D+02          -0.721610D-02
                  0.122490D+02          -0.393380D-01
                  0.447430D+01          -0.906110D-01
                  0.124040D+01           0.198820D+00
            S    1   1.00
                  0.487430D+00           0.100000D+01
            S    1   1.00
                  0.164840D+00           0.100000D+01
            P    4   1.00
                  0.479340D+02           0.617060D-02
                  0.109990D+02           0.442600D-01
                  0.324720D+01           0.168250D+00
                  0.111140D+01           0.368480D+00
            P    1   1.00
                  0.379880D+00           0.100000D+01
            P    1   1.00
                  0.120680D+00           0.100000D+01
            D    1   1.00
                  0.180000D+01           0.100000D+01
            D    1   1.00
                  0.550000D+00           0.100000D+01
            F    1   1.00
                  0.102000D+01           0.100000D+01
            ****
            -O     0
            S    7   1.00
                  0.147820D+05           0.535190D-03
                  0.221730D+04           0.413750D-02
                  0.504740D+03           0.212450D-01
                  0.142870D+03           0.824530D-01
                  0.463000D+02           0.236710D+00
                  0.163370D+02           0.440390D+00
                  0.598280D+01           0.364650D+00
            S    7   1.00
                  0.221730D+04          -0.192750D-05
                  0.504740D+03          -0.579640D-04
                  0.142870D+03          -0.794940D-03
                  0.463000D+02          -0.731250D-02
                  0.163370D+02          -0.405740D-01
                  0.598280D+01          -0.915940D-01
                  0.167180D+01           0.209400D+00
            S    1   1.00
                  0.646620D+00           0.100000D+01
            S    1   1.00
                  0.216690D+00           0.100000D+01
            P    4   1.00
                  0.604240D+02           0.689490D-02
                  0.139350D+02           0.490050D-01
                  0.415310D+01           0.182550D+00
                  0.141580D+01           0.376330D+00
            P    1   1.00
                  0.475490D+00           0.100000D+01
            P    1   1.00
                  0.145290D+00           0.100000D+01
            D    1   1.00
                  0.220000D+01           0.100000D+01
            D    1   1.00
                  0.650000D+00           0.100000D+01
            F    1   1.00
                  0.110000D+01           0.100000D+01
            ****
 Initial command:
 /public3/home/sc51754/softwares/g09e01/l1.exe "./Gau-52963.inp" -scrdir="./"
 Entering Link 1 = /public3/home/sc51754/softwares/g09e01/l1.exe PID=     52964.
  
 Copyright (c) 1988,1990,1992,1993,1995,1998,2003,2009,2015,
            Gaussian, Inc.  All Rights Reserved.
  
 This is part of the Gaussian(R) 09 program.  It is based on
 the Gaussian(R) 03 system (copyright 2003, Gaussian, Inc.),
 the Gaussian(R) 98 system (copyright 1998, Gaussian, Inc.),
 the Gaussian(R) 94 system (copyright 1995, Gaussian, Inc.),
 the Gaussian 92(TM) system (copyright 1992, Gaussian, Inc.),
 the Gaussian 90(TM) system (copyright 1990, Gaussian, Inc.),
 the Gaussian 88(TM) system (copyright 1988, Gaussian, Inc.),
 the Gaussian 86(TM) system (copyright 1986, Carnegie Mellon
 University), and the Gaussian 82(TM) system (copyright 1983,
 Carnegie Mellon University). Gaussian is a federally registered
 trademark of Gaussian, Inc.
  
 This software contains proprietary and confidential information,
 including trade secrets, belonging to Gaussian, Inc.
  
 This software is provided under written license and may be
 used, copied, transmitted, or stored only in accord with that
 written license.
  
 The following legend is applicable only to US Government
 contracts under FAR:
  
                    RESTRICTED RIGHTS LEGEND
  
 Use, reproduction and disclosure by the US Government is
 subject to restrictions as set forth in subparagraphs (a)
 and (c) of the Commercial Computer Software - Restricted
 Rights clause in FAR 52.227-19.
  
 Gaussian, Inc.
 340 Quinnipiac St., Bldg. 40, Wallingford CT 06492
  
  
 ---------------------------------------------------------------
 Warning -- This program may not be used in any manner that
 competes with the business of Gaussian, Inc. or will provide
 assistance to any competitor of Gaussian, Inc.  The licensee
 of this program is prohibited from giving any competitor of
 Gaussian, Inc. access to this program.  By using this program,
 the user acknowledges that Gaussian, Inc. is engaged in the
 business of creating and licensing software in the field of
 computational chemistry and represents and warrants to the
 licensee that it is not a competitor of Gaussian, Inc. and that
 it will not use this program in any manner prohibited above.
 ---------------------------------------------------------------
  

 Cite this work as:
 Gaussian 09, Revision E.01,
 M. J. Frisch, G. W. Trucks, H. B. Schlegel, G. E. Scuseria, 
 M. A. Robb, J. R. Cheeseman, G. Scalmani, V. Barone, B. Mennucci, 
 G. A. Petersson, H. Nakatsuji, M. Caricato, X. Li, H. P. Hratchian, 
 A. F. Izmaylov, J. Bloino, G. Zheng, J. L. Sonnenberg, M. Hada, 
 M. Ehara, K. Toyota, R. Fukuda, J. Hasegawa, M. Ishida, T. Nakajima, 
 Y. Honda, O. Kitao, H. Nakai, T. Vreven, J. A. Montgomery, Jr., 
 J. E. Peralta, F. Ogliaro, M. Bearpark, J. J. Heyd, E. Brothers, 
 K. N. Kudin, V. N. Staroverov, T. Keith, R. Kobayashi, J. Normand, 
 K. Raghavachari, A. Rendell, J. C. Burant, S. S. Iyengar, J. Tomasi, 
 M. Cossi, N. Rega, J. M. Millam, M. Klene, J. E. Knox, J. B. Cross, 
 V. Bakken, C. Adamo, J. Jaramillo, R. Gomperts, R. E. Stratmann, 
 O. Yazyev, A. J. Austin, R. Cammi, C. Pomelli, J. W. Ochterski, 
 R. L. Martin, K. Morokuma, V. G. Zakrzewski, G. A. Voth, 
 P. Salvador, J. J. Dannenberg, S. Dapprich, A. D. Daniels, 
 O. Farkas, J. B. Foresman, J. V. Ortiz, J. Cioslowski, 
 and D. J. Fox, Gaussian, Inc., Wallingford CT, 2013.
 
 ******************************************
 Gaussian 09:  EM64L-G09RevE.01 30-Nov-2015
                27-Aug-2021 
 ******************************************
 %nprocshared=64
 Will use up to   64 processors via shared memory.
 %mem=128GB
 %chk=PY_LC-wPBE_PC2_OPT_FREQ.chk
 -----------------------
 #p opt freq LC-wPBE/gen
 -----------------------
 1/14=-1,18=20,19=15,26=3,38=1/1,3;
 2/9=110,12=2,17=6,18=5,40=1/2;
 3/5=7,11=2,16=1,25=1,30=1,71=1,74=-41/1,2,3;
 4//1;
 5/5=2,38=5/2;
 6/7=2,8=2,9=2,10=2,28=1/1;
 7//1,2,3,16;
 1/14=-1,18=20,19=15,26=3/3(2);
 2/9=110/2;
 99//99;
 2/9=110/2;
 3/5=7,6=1,11=2,16=1,25=1,30=1,71=1,74=-41,82=7/1,2,3;
 4/5=5,16=3,69=1/1;
 5/5=2,38=5/2;
 7//1,2,3,16;
 1/14=-1,18=20,19=15,26=3/3(-5);
 2/9=110/2;
 6/7=2,8=2,9=2,10=2,19=2,28=1/1;
 99/9=1/99;
 Leave Link    1 at Fri Aug 27 00:11:40 2021, MaxMem= 17179869184 cpu:         3.9
 (Enter /public3/home/sc51754/softwares/g09e01/l101.exe)
 -----------------------
 PY_LC-wPBE_PC2_OPT_FREQ
 -----------------------
 Symbolic Z-matrix:
 Charge =  0 Multiplicity = 1
 O                    -0.1303    2.2679    0. 
 N                    -1.13214   0.23327   0. 
 C                     0.        1.06201   0. 
 C                     1.23795   0.32011   0. 
 C                    -1.11441  -1.12189   0. 
 C                     1.25607  -1.03234   0. 
 C                     0.05856  -1.79159   0. 
 H                    -2.00762   0.73274   0. 
 H                     2.14422   0.90837   0. 
 H                    -2.07697  -1.61403   0. 
 H                     2.20675  -1.5513    0. 
 H                     0.072    -2.86964   0. 
 
 NAtoms=     12 NQM=       12 NQMF=       0 NMMI=      0 NMMIF=      0
                NMic=       0 NMicF=      0.
                    Isotopes and Nuclear Properties:
 (Nuclear quadrupole moments (NQMom) in fm**2, nuclear magnetic moments (NMagM)
  in nuclear magnetons)

  Atom         1           2           3           4           5           6           7           8           9          10
 IAtWgt=          16          14          12          12          12          12          12           1           1           1
 AtmWgt=  15.9949146  14.0030740  12.0000000  12.0000000  12.0000000  12.0000000  12.0000000   1.0078250   1.0078250   1.0078250
 NucSpn=           0           2           0           0           0           0           0           1           1           1
 AtZEff=   0.0000000   0.0000000   0.0000000   0.0000000   0.0000000   0.0000000   0.0000000   0.0000000   0.0000000   0.0000000
 NQMom=    0.0000000   2.0440000   0.0000000   0.0000000   0.0000000   0.0000000   0.0000000   0.0000000   0.0000000   0.0000000
 NMagM=    0.0000000   0.4037610   0.0000000   0.0000000   0.0000000   0.0000000   0.0000000   2.7928460   2.7928460   2.7928460
 AtZNuc=   8.0000000   7.0000000   6.0000000   6.0000000   6.0000000   6.0000000   6.0000000   1.0000000   1.0000000   1.0000000

  Atom        11          12
 IAtWgt=           1           1
 AtmWgt=   1.0078250   1.0078250
 NucSpn=           1           1
 AtZEff=   0.0000000   0.0000000
 NQMom=    0.0000000   0.0000000
 NMagM=    2.7928460   2.7928460
 AtZNuc=   1.0000000   1.0000000
 Leave Link  101 at Fri Aug 27 00:11:41 2021, MaxMem= 17179869184 cpu:         5.6
 (Enter /public3/home/sc51754/softwares/g09e01/l103.exe)

 GradGradGradGradGradGradGradGradGradGradGradGradGradGradGradGradGradGrad
 Berny optimization.
 Initialization pass.
                           ----------------------------
                           !    Initial Parameters    !
                           ! (Angstroms and Degrees)  !
 --------------------------                            --------------------------
 ! Name  Definition              Value          Derivative Info.                !
 --------------------------------------------------------------------------------
 ! R1    R(1,3)                  1.2129         estimate D2E/DX2                !
 ! R2    R(2,3)                  1.403          estimate D2E/DX2                !
 ! R3    R(2,5)                  1.3553         estimate D2E/DX2                !
 ! R4    R(2,8)                  1.0079         estimate D2E/DX2                !
 ! R5    R(3,4)                  1.4432         estimate D2E/DX2                !
 ! R6    R(4,6)                  1.3526         estimate D2E/DX2                !
 ! R7    R(4,9)                  1.0805         estimate D2E/DX2                !
 ! R8    R(5,7)                  1.3507         estimate D2E/DX2                !
 ! R9    R(5,10)                 1.0811         estimate D2E/DX2                !
 ! R10   R(6,7)                  1.4179         estimate D2E/DX2                !
 ! R11   R(6,11)                 1.0831         estimate D2E/DX2                !
 ! R12   R(7,12)                 1.0781         estimate D2E/DX2                !
 ! A1    A(3,2,5)              125.4546         estimate D2E/DX2                !
 ! A2    A(3,2,8)              114.0905         estimate D2E/DX2                !
 ! A3    A(5,2,8)              120.4549         estimate D2E/DX2                !
 ! A4    A(1,3,2)              120.0371         estimate D2E/DX2                !
 ! A5    A(1,3,4)              127.1013         estimate D2E/DX2                !
 ! A6    A(2,3,4)              112.8616         estimate D2E/DX2                !
 ! A7    A(3,4,6)              121.7019         estimate D2E/DX2                !
 ! A8    A(3,4,9)              116.0785         estimate D2E/DX2                !
 ! A9    A(6,4,9)              122.2196         estimate D2E/DX2                !
 ! A10   A(2,5,7)              120.4739         estimate D2E/DX2                !
 ! A11   A(2,5,10)             116.3305         estimate D2E/DX2                !
 ! A12   A(7,5,10)             123.1956         estimate D2E/DX2                !
 ! A13   A(4,6,7)              121.6078         estimate D2E/DX2                !
 ! A14   A(4,6,11)             119.3971         estimate D2E/DX2                !
 ! A15   A(7,6,11)             118.9951         estimate D2E/DX2                !
 ! A16   A(5,7,6)              117.9002         estimate D2E/DX2                !
 ! A17   A(5,7,12)             120.4381         estimate D2E/DX2                !
 ! A18   A(6,7,12)             121.6617         estimate D2E/DX2                !
 ! D1    D(5,2,3,1)            180.0            estimate D2E/DX2                !
 ! D2    D(5,2,3,4)              0.0            estimate D2E/DX2                !
 ! D3    D(8,2,3,1)              0.0            estimate D2E/DX2                !
 ! D4    D(8,2,3,4)            180.0            estimate D2E/DX2                !
 ! D5    D(3,2,5,7)              0.0            estimate D2E/DX2                !
 ! D6    D(3,2,5,10)           180.0            estimate D2E/DX2                !
 ! D7    D(8,2,5,7)            180.0            estimate D2E/DX2                !
 ! D8    D(8,2,5,10)             0.0            estimate D2E/DX2                !
 ! D9    D(1,3,4,6)            180.0            estimate D2E/DX2                !
 ! D10   D(1,3,4,9)              0.0            estimate D2E/DX2                !
 ! D11   D(2,3,4,6)              0.0            estimate D2E/DX2                !
 ! D12   D(2,3,4,9)            180.0            estimate D2E/DX2                !
 ! D13   D(3,4,6,7)              0.0            estimate D2E/DX2                !
 ! D14   D(3,4,6,11)           180.0            estimate D2E/DX2                !
 ! D15   D(9,4,6,7)            180.0            estimate D2E/DX2                !
 ! D16   D(9,4,6,11)             0.0            estimate D2E/DX2                !
 ! D17   D(2,5,7,6)              0.0            estimate D2E/DX2                !
 ! D18   D(2,5,7,12)           180.0            estimate D2E/DX2                !
 ! D19   D(10,5,7,6)           180.0            estimate D2E/DX2                !
 ! D20   D(10,5,7,12)            0.0            estimate D2E/DX2                !
 ! D21   D(4,6,7,5)              0.0            estimate D2E/DX2                !
 ! D22   D(4,6,7,12)           180.0            estimate D2E/DX2                !
 ! D23   D(11,6,7,5)           180.0            estimate D2E/DX2                !
 ! D24   D(11,6,7,12)            0.0            estimate D2E/DX2                !
 --------------------------------------------------------------------------------
 Trust Radius=3.00D-01 FncErr=1.00D-07 GrdErr=1.00D-06
 Number of steps in this run=     64 maximum allowed number of steps=    100.
 GradGradGradGradGradGradGradGradGradGradGradGradGradGradGradGradGradGrad

 Leave Link  103 at Fri Aug 27 00:11:41 2021, MaxMem= 17179869184 cpu:         0.1
 (Enter /public3/home/sc51754/softwares/g09e01/l202.exe)
                          Input orientation:                          
 ---------------------------------------------------------------------
 Center     Atomic      Atomic             Coordinates (Angstroms)
 Number     Number       Type             X           Y           Z
 ---------------------------------------------------------------------
      1          8           0       -0.130304    2.267896    0.000000
      2          7           0       -1.132141    0.233271    0.000000
      3          6           0        0.000000    1.062005    0.000000
      4          6           0        1.237945    0.320111    0.000000
      5          6           0       -1.114407   -1.121885    0.000000
      6          6           0        1.256071   -1.032342    0.000000
      7          6           0        0.058564   -1.791590    0.000000
      8          1           0       -2.007624    0.732742    0.000000
      9          1           0        2.144218    0.908369    0.000000
     10          1           0       -2.076968   -1.614034    0.000000
     11          1           0        2.206750   -1.551299    0.000000
     12          1           0        0.071999   -2.869636    0.000000
 ---------------------------------------------------------------------
                    Distance matrix (angstroms):
                    1          2          3          4          5
     1  O    0.000000
     2  N    2.267901   0.000000
     3  C    1.212911   1.403048   0.000000
     4  C    2.380330   2.371676   1.443231   0.000000
     5  C    3.529741   1.355272   2.451791   2.759151   0.000000
     6  C    3.579610   2.702838   2.442131   1.352574   2.372169
     7  C    4.063877   2.349008   2.854196   2.418723   1.350691
     8  H    2.425083   1.007939   2.034445   3.271694   2.058514
     9  H    2.649861   3.345188   2.149715   1.080453   3.839345
    10  H    4.342681   2.074906   3.387474   3.837912   1.081080
    11  H    4.477507   3.785879   3.420395   2.107311   3.348803
    12  H    5.141514   3.328361   3.932300   3.396162   2.112390
                    6          7          8          9         10
     6  C    0.000000
     7  C    1.417914   0.000000
     8  H    3.710421   3.262114   0.000000
     9  H    2.134283   3.411705   4.155555   0.000000
    10  H    3.383418   2.142901   2.347800   4.917411   0.000000
    11  H    1.083101   2.161583   4.793516   2.460463   4.284177
    12  H    2.185790   1.078130   4.159562   4.308992   2.488894
                   11         12
    11  H    0.000000
    12  H    2.509019   0.000000
 Stoichiometry    C5H5NO
 Framework group  CS[SG(C5H5NO)]
 Deg. of freedom    21
 Full point group                 CS      NOp   2
 Largest Abelian subgroup         CS      NOp   2
 Largest concise Abelian subgroup C1      NOp   1
                         Standard orientation:                         
 ---------------------------------------------------------------------
 Center     Atomic      Atomic             Coordinates (Angstroms)
 Number     Number       Type             X           Y           Z
 ---------------------------------------------------------------------
      1          8           0       -0.130304    2.267896    0.000000
      2          7           0       -1.132141    0.233271    0.000000
      3          6           0       -0.000000    1.062005    0.000000
      4          6           0        1.237945    0.320111   -0.000000
      5          6           0       -1.114407   -1.121885    0.000000
      6          6           0        1.256071   -1.032342   -0.000000
      7          6           0        0.058564   -1.791590   -0.000000
      8          1           0       -2.007624    0.732742    0.000000
      9          1           0        2.144218    0.908369   -0.000000
     10          1           0       -2.076968   -1.614034    0.000000
     11          1           0        2.206750   -1.551299   -0.000000
     12          1           0        0.071999   -2.869636   -0.000000
 ---------------------------------------------------------------------
 Rotational constants (GHZ):      5.7341355      2.8228169      1.8916098
 Leave Link  202 at Fri Aug 27 00:11:41 2021, MaxMem= 17179869184 cpu:         3.2
 (Enter /public3/home/sc51754/softwares/g09e01/l301.exe)
 General basis read from cards:  (5D, 7F)
 Centers:       8      9     10     11     12
 S 4 1.00
     Exponent=  7.5423000000D+01 Coefficients=  2.4065000000D-03
     Exponent=  1.1350000000D+01 Coefficients=  1.8487000000D-02
     Exponent=  2.5993000000D+00 Coefficients=  8.9742000000D-02
     Exponent=  7.3513000000D-01 Coefficients=  2.8111000000D-01
 S 1 1.00
     Exponent=  2.3167000000D-01 Coefficients=  1.0000000000D+00
 S 1 1.00
     Exponent=  7.4147000000D-02 Coefficients=  1.0000000000D+00
 P 1 1.00
     Exponent=  1.6000000000D+00 Coefficients=  1.0000000000D+00
 P 1 1.00
     Exponent=  4.5000000000D-01 Coefficients=  1.0000000000D+00
 D 1 1.00
     Exponent=  1.2500000000D+00 Coefficients=  1.0000000000D+00
 ****
 Centers:       3      4      5      6      7
 S 7 1.00
     Exponent=  7.8571000000D+03 Coefficients=  5.6825000000D-04
     Exponent=  1.1787000000D+03 Coefficients=  4.3915000000D-03
     Exponent=  2.6832000000D+02 Coefficients=  2.2504000000D-02
     Exponent=  7.5948000000D+01 Coefficients=  8.6653000000D-02
     Exponent=  2.4559000000D+01 Coefficients=  2.4405000000D-01
     Exponent=  8.6212000000D+00 Coefficients=  4.4148000000D-01
     Exponent=  3.1278000000D+00 Coefficients=  3.5332000000D-01
 S 7 1.00
     Exponent=  1.1787000000D+03 Coefficients= -5.9492000000D-07
     Exponent=  2.6832000000D+02 Coefficients= -6.2748000000D-05
     Exponent=  7.5948000000D+01 Coefficients= -7.5773000000D-04
     Exponent=  2.4559000000D+01 Coefficients= -7.3308000000D-03
     Exponent=  8.6212000000D+00 Coefficients= -3.8932000000D-02
     Exponent=  3.1278000000D+00 Coefficients= -8.8908000000D-02
     Exponent=  8.2202000000D-01 Coefficients=  2.1689000000D-01
 S 1 1.00
     Exponent=  3.3017000000D-01 Coefficients=  1.0000000000D+00
 S 1 1.00
     Exponent=  1.1463000000D-01 Coefficients=  1.0000000000D+00
 P 4 1.00
     Exponent=  3.3775000000D+01 Coefficients=  6.0294000000D-03
     Exponent=  7.6766000000D+00 Coefficients=  4.3228000000D-02
     Exponent=  2.2357000000D+00 Coefficients=  1.6301000000D-01
     Exponent=  7.6447000000D-01 Coefficients=  3.6504000000D-01
 P 1 1.00
     Exponent=  2.6232000000D-01 Coefficients=  1.0000000000D+00
 P 1 1.00
     Exponent=  8.4638000000D-02 Coefficients=  1.0000000000D+00
 D 1 1.00
     Exponent=  1.4000000000D+00 Coefficients=  1.0000000000D+00
 D 1 1.00
     Exponent=  4.5000000000D-01 Coefficients=  1.0000000000D+00
 F 1 1.00
     Exponent=  9.5000000000D-01 Coefficients=  1.0000000000D+00
 ****
 Centers:       2
 S 7 1.00
     Exponent=  1.1101000000D+04 Coefficients=  5.4570000000D-04
     Exponent=  1.6653000000D+03 Coefficients=  4.2181000000D-03
     Exponent=  3.7908000000D+02 Coefficients=  2.1645000000D-02
     Exponent=  1.0730000000D+02 Coefficients=  8.3776000000D-02
     Exponent=  3.4747000000D+01 Coefficients=  2.3881000000D-01
     Exponent=  1.2249000000D+01 Coefficients=  4.3994000000D-01
     Exponent=  4.4743000000D+00 Coefficients=  3.6364000000D-01
 S 7 1.00
     Exponent=  1.6653000000D+03 Coefficients= -1.5006000000D-06
     Exponent=  3.7908000000D+02 Coefficients= -5.8753000000D-05
     Exponent=  1.0730000000D+02 Coefficients= -7.7453000000D-04
     Exponent=  3.4747000000D+01 Coefficients= -7.2161000000D-03
     Exponent=  1.2249000000D+01 Coefficients= -3.9338000000D-02
     Exponent=  4.4743000000D+00 Coefficients= -9.0611000000D-02
     Exponent=  1.2404000000D+00 Coefficients=  1.9882000000D-01
 S 1 1.00
     Exponent=  4.8743000000D-01 Coefficients=  1.0000000000D+00
 S 1 1.00
     Exponent=  1.6484000000D-01 Coefficients=  1.0000000000D+00
 P 4 1.00
     Exponent=  4.7934000000D+01 Coefficients=  6.1706000000D-03
     Exponent=  1.0999000000D+01 Coefficients=  4.4260000000D-02
     Exponent=  3.2472000000D+00 Coefficients=  1.6825000000D-01
     Exponent=  1.1114000000D+00 Coefficients=  3.6848000000D-01
 P 1 1.00
     Exponent=  3.7988000000D-01 Coefficients=  1.0000000000D+00
 P 1 1.00
     Exponent=  1.2068000000D-01 Coefficients=  1.0000000000D+00
 D 1 1.00
     Exponent=  1.8000000000D+00 Coefficients=  1.0000000000D+00
 D 1 1.00
     Exponent=  5.5000000000D-01 Coefficients=  1.0000000000D+00
 F 1 1.00
     Exponent=  1.0200000000D+00 Coefficients=  1.0000000000D+00
 ****
 Centers:       1
 S 7 1.00
     Exponent=  1.4782000000D+04 Coefficients=  5.3519000000D-04
     Exponent=  2.2173000000D+03 Coefficients=  4.1375000000D-03
     Exponent=  5.0474000000D+02 Coefficients=  2.1245000000D-02
     Exponent=  1.4287000000D+02 Coefficients=  8.2453000000D-02
     Exponent=  4.6300000000D+01 Coefficients=  2.3671000000D-01
     Exponent=  1.6337000000D+01 Coefficients=  4.4039000000D-01
     Exponent=  5.9828000000D+00 Coefficients=  3.6465000000D-01
 S 7 1.00
     Exponent=  2.2173000000D+03 Coefficients= -1.9275000000D-06
     Exponent=  5.0474000000D+02 Coefficients= -5.7964000000D-05
     Exponent=  1.4287000000D+02 Coefficients= -7.9494000000D-04
     Exponent=  4.6300000000D+01 Coefficients= -7.3125000000D-03
     Exponent=  1.6337000000D+01 Coefficients= -4.0574000000D-02
     Exponent=  5.9828000000D+00 Coefficients= -9.1594000000D-02
     Exponent=  1.6718000000D+00 Coefficients=  2.0940000000D-01
 S 1 1.00
     Exponent=  6.4662000000D-01 Coefficients=  1.0000000000D+00
 S 1 1.00
     Exponent=  2.1669000000D-01 Coefficients=  1.0000000000D+00
 P 4 1.00
     Exponent=  6.0424000000D+01 Coefficients=  6.8949000000D-03
     Exponent=  1.3935000000D+01 Coefficients=  4.9005000000D-02
     Exponent=  4.1531000000D+00 Coefficients=  1.8255000000D-01
     Exponent=  1.4158000000D+00 Coefficients=  3.7633000000D-01
 P 1 1.00
     Exponent=  4.7549000000D-01 Coefficients=  1.0000000000D+00
 P 1 1.00
     Exponent=  1.4529000000D-01 Coefficients=  1.0000000000D+00
 D 1 1.00
     Exponent=  2.2000000000D+00 Coefficients=  1.0000000000D+00
 D 1 1.00
     Exponent=  6.5000000000D-01 Coefficients=  1.0000000000D+00
 F 1 1.00
     Exponent=  1.1000000000D+00 Coefficients=  1.0000000000D+00
 ****
 Ernie: Thresh=  0.10000D-02 Tol=  0.10000D-05 Strict=F.
 Ernie:  7 primitive shells out of 220 were deleted.
 There are   223 symmetry adapted cartesian basis functions of A'  symmetry.
 There are    97 symmetry adapted cartesian basis functions of A"  symmetry.
 There are   190 symmetry adapted basis functions of A'  symmetry.
 There are    90 symmetry adapted basis functions of A"  symmetry.
   280 basis functions,   475 primitive gaussians,   320 cartesian basis functions
    25 alpha electrons       25 beta electrons
       nuclear repulsion energy       276.8386644497 Hartrees.
 IExCor=32609 DFT=T Ex+Corr=LC-wPBE ExCW=0 ScaHFX=  1.000000
 ScaDFX=  1.000000  0.000000  1.000000  1.000000 ScalE2=  1.000000  1.000000
 IRadAn=      0 IRanWt=     -1 IRanGd=            0 ICorTp=0 IEmpDi=  4
  HFx wShort=  0.000000 wLong=  0.400000 cFull=  0.000000 cShort=  0.000000 cLong=  1.000000
  DFx wShort=  0.000000 wLong=  0.400000 cFull=  0.000000 cShort=  0.000000 cLong=  1.000000
 NAtoms=   12 NActive=   12 NUniq=   12 SFac= 1.00D+00 NAtFMM=   60 NAOKFM=F Big=F
 Integral buffers will be    131072 words long.
 Raffenetti 2 integral format.
 Two-electron integral symmetry is turned on.
 Leave Link  301 at Fri Aug 27 00:11:41 2021, MaxMem= 17179869184 cpu:         1.8
 (Enter /public3/home/sc51754/softwares/g09e01/l302.exe)
 NPDir=0 NMtPBC=     1 NCelOv=     1 NCel=       1 NClECP=     1 NCelD=      1
         NCelK=      1 NCelE2=     1 NClLst=     1 CellRange=     0.0.
 One-electron integrals computed using PRISM.
 NBasis=   280 RedAO= T EigKep=  2.29D-04  NBF=   190    90
 NBsUse=   280 1.00D-06 EigRej= -1.00D+00 NBFU=   190    90
 Precomputing XC quadrature grid using
 IXCGrd= 4 IRadAn=           0 IRanWt=          -1 IRanGd=           0 AccXCQ= 0.00D+00.
 Generated NRdTot=       0 NPtTot=           0 NUsed=           0 NTot=          32
 NSgBfM=   320   320   320   320   320 MxSgAt=    12 MxSgA2=    12.
 Leave Link  302 at Fri Aug 27 00:11:42 2021, MaxMem= 17179869184 cpu:        41.2
 (Enter /public3/home/sc51754/softwares/g09e01/l303.exe)
 DipDrv:  MaxL=1.
 Leave Link  303 at Fri Aug 27 00:11:42 2021, MaxMem= 17179869184 cpu:        11.8
 (Enter /public3/home/sc51754/softwares/g09e01/l401.exe)
 ExpMin= 7.41D-02 ExpMax= 1.48D+04 ExpMxC= 5.05D+02 IAcc=2 IRadAn=         4 AccDes= 0.00D+00
 Harris functional with IExCor=32609 and IRadAn=       4 diagonalized for initial guess.
 HarFok:  IExCor=32609 AccDes= 0.00D+00 IRadAn=         4 IDoV= 1 UseB2=F ITyADJ=14
 ICtDFT=  3500011 ScaDFX=  1.000000  1.000000  1.000000  1.000000
 FoFCou: FMM=F IPFlag=           0 FMFlag=      100000 FMFlg1=           0
         NFxFlg=           0 DoJE=T BraDBF=F KetDBF=T FulRan=T
         wScrn=  0.000000 ICntrl=     500 IOpCl=  0 I1Cent=   200000004 NGrid=           0
         NMat0=    1 NMatS0=      1 NMatT0=    0 NMatD0=    1 NMtDS0=    0 NMtDT0=    0
 Petite list used in FoFCou.
 Harris En= -323.438040318552    
 JPrj=0 DoOrth=F DoCkMO=F.
 Initial guess orbital symmetries:
       Occupied  (A') (A') (A') (A') (A') (A') (A') (A') (A') (A')
                 (A') (A') (A') (A') (A') (A') (A') (A') (A") (A')
                 (A') (A") (A") (A') (A")
       Virtual   (A") (A") (A') (A') (A") (A') (A') (A') (A') (A')
                 (A') (A') (A") (A') (A") (A') (A") (A') (A') (A')
                 (A') (A') (A") (A') (A") (A') (A') (A') (A') (A')
                 (A") (A') (A') (A') (A") (A') (A') (A') (A') (A')
                 (A') (A') (A") (A') (A') (A') (A") (A') (A") (A")
                 (A') (A") (A') (A') (A") (A') (A') (A') (A') (A")
                 (A') (A") (A') (A') (A") (A') (A") (A') (A") (A")
                 (A') (A') (A') (A") (A') (A") (A') (A") (A') (A')
                 (A") (A') (A") (A') (A") (A') (A') (A') (A") (A")
                 (A') (A') (A") (A') (A') (A') (A') (A") (A') (A')
                 (A') (A') (A") (A') (A') (A') (A") (A') (A') (A')
                 (A") (A') (A') (A') (A') (A') (A") (A') (A') (A")
                 (A') (A') (A") (A') (A') (A") (A") (A") (A') (A")
                 (A') (A') (A") (A') (A") (A') (A') (A") (A') (A')
                 (A') (A') (A") (A') (A") (A') (A') (A') (A') (A')
                 (A') (A") (A") (A") (A") (A') (A") (A") (A') (A")
                 (A') (A") (A') (A') (A") (A') (A') (A') (A') (A")
                 (A') (A") (A') (A") (A") (A') (A') (A") (A") (A")
                 (A') (A") (A') (A") (A") (A') (A') (A") (A') (A")
                 (A') (A") (A') (A") (A') (A") (A') (A') (A") (A')
                 (A') (A') (A") (A") (A') (A') (A") (A') (A') (A')
                 (A") (A') (A') (A") (A') (A") (A') (A") (A') (A')
                 (A") (A') (A") (A') (A") (A') (A') (A') (A") (A')
                 (A') (A') (A') (A") (A') (A") (A') (A') (A') (A')
                 (A') (A") (A') (A') (A') (A') (A') (A') (A') (A')
                 (A') (A') (A') (A') (A')
 The electronic state of the initial guess is 1-A'.
 Leave Link  401 at Fri Aug 27 00:11:43 2021, MaxMem= 17179869184 cpu:        43.2
 (Enter /public3/home/sc51754/softwares/g09e01/l502.exe)
 Closed shell SCF:
 Using DIIS extrapolation, IDIIS=  1040.
 Integral symmetry usage will be decided dynamically.
 Keep R1 ints in memory in symmetry-blocked form, NReq=2335173138.
 IVT=      348658 IEndB=      348658 NGot= 17179869184 MDV= 16785904737
 LenX= 16785904737 LenY= 16785801896
 Requested convergence on RMS density matrix=1.00D-08 within 128 cycles.
 Requested convergence on MAX density matrix=1.00D-06.
 Requested convergence on             energy=1.00D-06.
 No special actions if energy rises.
 FoFCou: FMM=F IPFlag=           0 FMFlag=           0 FMFlg1=           0
         NFxFlg=           0 DoJE=F BraDBF=F KetDBF=F FulRan=T
         wScrn=  0.000000 ICntrl=     600 IOpCl=  0 I1Cent=           0 NGrid=           0
         NMat0=    1 NMatS0=  39340 NMatT0=    0 NMatD0=    1 NMtDS0=    0 NMtDT0=    0
 Petite list used in FoFCou.
 Integral accuracy reduced to 1.0D-05 until final iterations.

 Cycle   1  Pass 0  IDiag  1:
 E= -323.242505433764    
 DIIS: error= 2.78D-02 at cycle   1 NSaved=   1.
 NSaved= 1 IEnMin= 1 EnMin= -323.242505433764     IErMin= 1 ErrMin= 2.78D-02
 ErrMax= 2.78D-02  0.00D+00 EMaxC= 1.00D-01 BMatC= 2.14D-01 BMatP= 2.14D-01
 IDIUse=3 WtCom= 7.22D-01 WtEn= 2.78D-01
 Coeff-Com:  0.100D+01
 Coeff-En:   0.100D+01
 Coeff:      0.100D+01
 Gap=     0.323 Goal=   None    Shift=    0.000
 GapD=    0.323 DampG=1.000 DampE=0.500 DampFc=0.5000 IDamp=-1.
 Damping current iteration by 5.00D-01
 RMSDP=2.32D-03 MaxDP=1.04D-01              OVMax= 1.90D-01

 Cycle   2  Pass 0  IDiag  1:
 E= -323.333911219516     Delta-E=       -0.091405785752 Rises=F Damp=T
 DIIS: error= 9.68D-03 at cycle   2 NSaved=   2.
 NSaved= 2 IEnMin= 2 EnMin= -323.333911219516     IErMin= 2 ErrMin= 9.68D-03
 ErrMax= 9.68D-03  0.00D+00 EMaxC= 1.00D-01 BMatC= 1.51D-02 BMatP= 2.14D-01
 IDIUse=3 WtCom= 9.03D-01 WtEn= 9.68D-02
 Coeff-Com: -0.217D-01 0.102D+01
 Coeff-En:   0.000D+00 0.100D+01
 Coeff:     -0.196D-01 0.102D+01
 Gap=     0.375 Goal=   None    Shift=    0.000
 RMSDP=6.08D-04 MaxDP=2.70D-02 DE=-9.14D-02 OVMax= 9.53D-02

 Cycle   3  Pass 0  IDiag  1:
 E= -323.422985221084     Delta-E=       -0.089074001567 Rises=F Damp=F
 DIIS: error= 6.18D-03 at cycle   3 NSaved=   3.
 NSaved= 3 IEnMin= 3 EnMin= -323.422985221084     IErMin= 3 ErrMin= 6.18D-03
 ErrMax= 6.18D-03  0.00D+00 EMaxC= 1.00D-01 BMatC= 8.07D-03 BMatP= 1.51D-02
 IDIUse=3 WtCom= 9.38D-01 WtEn= 6.18D-02
 Coeff-Com: -0.623D-01 0.446D+00 0.616D+00
 Coeff-En:   0.000D+00 0.000D+00 0.100D+01
 Coeff:     -0.585D-01 0.419D+00 0.640D+00
 Gap=     0.356 Goal=   None    Shift=    0.000
 RMSDP=2.53D-04 MaxDP=1.27D-02 DE=-8.91D-02 OVMax= 3.15D-02

 Cycle   4  Pass 0  IDiag  1:
 E= -323.428848158665     Delta-E=       -0.005862937581 Rises=F Damp=F
 DIIS: error= 1.56D-03 at cycle   4 NSaved=   4.
 NSaved= 4 IEnMin= 4 EnMin= -323.428848158665     IErMin= 4 ErrMin= 1.56D-03
 ErrMax= 1.56D-03  0.00D+00 EMaxC= 1.00D-01 BMatC= 7.60D-04 BMatP= 8.07D-03
 IDIUse=3 WtCom= 9.84D-01 WtEn= 1.56D-02
 Coeff-Com: -0.582D-02 0.300D-01 0.242D+00 0.734D+00
 Coeff-En:   0.000D+00 0.000D+00 0.000D+00 0.100D+01
 Coeff:     -0.573D-02 0.295D-01 0.238D+00 0.738D+00
 Gap=     0.359 Goal=   None    Shift=    0.000
 RMSDP=7.56D-05 MaxDP=3.25D-03 DE=-5.86D-03 OVMax= 6.43D-03

 Cycle   5  Pass 0  IDiag  1:
 E= -323.429514221078     Delta-E=       -0.000666062413 Rises=F Damp=F
 DIIS: error= 4.51D-04 at cycle   5 NSaved=   5.
 NSaved= 5 IEnMin= 5 EnMin= -323.429514221078     IErMin= 5 ErrMin= 4.51D-04
 ErrMax= 4.51D-04  0.00D+00 EMaxC= 1.00D-01 BMatC= 2.64D-05 BMatP= 7.60D-04
 IDIUse=3 WtCom= 9.95D-01 WtEn= 4.51D-03
 Coeff-Com:  0.480D-02-0.253D-01 0.104D-01 0.120D+00 0.890D+00
 Coeff-En:   0.000D+00 0.000D+00 0.000D+00 0.000D+00 0.100D+01
 Coeff:      0.478D-02-0.251D-01 0.104D-01 0.120D+00 0.890D+00
 Gap=     0.359 Goal=   None    Shift=    0.000
 RMSDP=3.06D-05 MaxDP=1.08D-03 DE=-6.66D-04 OVMax= 5.71D-03

 Cycle   6  Pass 0  IDiag  1:
 E= -323.429590413570     Delta-E=       -0.000076192492 Rises=F Damp=F
 DIIS: error= 3.20D-04 at cycle   6 NSaved=   6.
 NSaved= 6 IEnMin= 6 EnMin= -323.429590413570     IErMin= 6 ErrMin= 3.20D-04
 ErrMax= 3.20D-04  0.00D+00 EMaxC= 1.00D-01 BMatC= 7.60D-06 BMatP= 2.64D-05
 IDIUse=3 WtCom= 9.97D-01 WtEn= 3.20D-03
 Coeff-Com:  0.257D-02-0.109D-01-0.277D-01-0.857D-01 0.182D+00 0.940D+00
 Coeff-En:   0.000D+00 0.000D+00 0.000D+00 0.000D+00 0.000D+00 0.100D+01
 Coeff:      0.256D-02-0.108D-01-0.276D-01-0.855D-01 0.181D+00 0.940D+00
 Gap=     0.360 Goal=   None    Shift=    0.000
 RMSDP=2.02D-05 MaxDP=5.44D-04 DE=-7.62D-05 OVMax= 3.80D-03

 Cycle   7  Pass 0  IDiag  1:
 E= -323.429617659655     Delta-E=       -0.000027246085 Rises=F Damp=F
 DIIS: error= 1.33D-04 at cycle   7 NSaved=   7.
 NSaved= 7 IEnMin= 7 EnMin= -323.429617659655     IErMin= 7 ErrMin= 1.33D-04
 ErrMax= 1.33D-04  0.00D+00 EMaxC= 1.00D-01 BMatC= 1.98D-06 BMatP= 7.60D-06
 IDIUse=3 WtCom= 9.99D-01 WtEn= 1.33D-03
 Coeff-Com: -0.481D-03 0.370D-02-0.689D-02-0.590D-01-0.242D+00 0.247D+00
 Coeff-Com:  0.106D+01
 Coeff-En:   0.000D+00 0.000D+00 0.000D+00 0.000D+00 0.000D+00 0.000D+00
 Coeff-En:   0.100D+01
 Coeff:     -0.480D-03 0.369D-02-0.688D-02-0.589D-01-0.241D+00 0.246D+00
 Coeff:      0.106D+01
 Gap=     0.360 Goal=   None    Shift=    0.000
 RMSDP=1.43D-05 MaxDP=4.25D-04 DE=-2.72D-05 OVMax= 2.94D-03

 Cycle   8  Pass 0  IDiag  1:
 E= -323.429625831778     Delta-E=       -0.000008172123 Rises=F Damp=F
 DIIS: error= 3.45D-05 at cycle   8 NSaved=   8.
 NSaved= 8 IEnMin= 8 EnMin= -323.429625831778     IErMin= 8 ErrMin= 3.45D-05
 ErrMax= 3.45D-05  0.00D+00 EMaxC= 1.00D-01 BMatC= 1.88D-07 BMatP= 1.98D-06
 IDIUse=1 WtCom= 1.00D+00 WtEn= 0.00D+00
 Coeff-Com: -0.314D-03 0.204D-02 0.185D-02-0.723D-02-0.862D-01-0.119D-01
 Coeff-Com:  0.302D+00 0.800D+00
 Coeff:     -0.314D-03 0.204D-02 0.185D-02-0.723D-02-0.862D-01-0.119D-01
 Coeff:      0.302D+00 0.800D+00
 Gap=     0.360 Goal=   None    Shift=    0.000
 RMSDP=2.79D-06 MaxDP=8.56D-05 DE=-8.17D-06 OVMax= 5.04D-04

 Initial convergence to 1.0D-05 achieved.  Increase integral accuracy.
 Cycle   9  Pass 1  IDiag  1:
 E= -323.429602145157     Delta-E=        0.000023686621 Rises=F Damp=F
 DIIS: error= 2.09D-05 at cycle   1 NSaved=   1.
 NSaved= 1 IEnMin= 1 EnMin= -323.429602145157     IErMin= 1 ErrMin= 2.09D-05
 ErrMax= 2.09D-05  0.00D+00 EMaxC= 1.00D-01 BMatC= 1.05D-07 BMatP= 1.05D-07
 IDIUse=1 WtCom= 1.00D+00 WtEn= 0.00D+00
 Coeff-Com:  0.100D+01
 Coeff:      0.100D+01
 Gap=     0.360 Goal=   None    Shift=    0.000
 RMSDP=2.79D-06 MaxDP=8.56D-05 DE= 2.37D-05 OVMax= 1.74D-04

 Cycle  10  Pass 1  IDiag  1:
 E= -323.429602239293     Delta-E=       -0.000000094136 Rises=F Damp=F
 DIIS: error= 1.17D-05 at cycle   2 NSaved=   2.
 NSaved= 2 IEnMin= 2 EnMin= -323.429602239293     IErMin= 2 ErrMin= 1.17D-05
 ErrMax= 1.17D-05  0.00D+00 EMaxC= 1.00D-01 BMatC= 2.81D-08 BMatP= 1.05D-07
 IDIUse=1 WtCom= 1.00D+00 WtEn= 0.00D+00
 Coeff-Com:  0.263D+00 0.737D+00
 Coeff:      0.263D+00 0.737D+00
 Gap=     0.360 Goal=   None    Shift=    0.000
 RMSDP=6.16D-07 MaxDP=3.73D-05 DE=-9.41D-08 OVMax= 8.94D-05

 Cycle  11  Pass 1  IDiag  1:
 E= -323.429602271770     Delta-E=       -0.000000032477 Rises=F Damp=F
 DIIS: error= 7.99D-06 at cycle   3 NSaved=   3.
 NSaved= 3 IEnMin= 3 EnMin= -323.429602271770     IErMin= 3 ErrMin= 7.99D-06
 ErrMax= 7.99D-06  0.00D+00 EMaxC= 1.00D-01 BMatC= 7.90D-09 BMatP= 2.81D-08
 IDIUse=1 WtCom= 1.00D+00 WtEn= 0.00D+00
 Coeff-Com: -0.614D-01 0.296D+00 0.766D+00
 Coeff:     -0.614D-01 0.296D+00 0.766D+00
 Gap=     0.360 Goal=   None    Shift=    0.000
 RMSDP=3.49D-07 MaxDP=1.46D-05 DE=-3.25D-08 OVMax= 6.31D-05

 Cycle  12  Pass 1  IDiag  1:
 E= -323.429602285953     Delta-E=       -0.000000014183 Rises=F Damp=F
 DIIS: error= 3.87D-06 at cycle   4 NSaved=   4.
 NSaved= 4 IEnMin= 4 EnMin= -323.429602285953     IErMin= 4 ErrMin= 3.87D-06
 ErrMax= 3.87D-06  0.00D+00 EMaxC= 1.00D-01 BMatC= 6.88D-10 BMatP= 7.90D-09
 IDIUse=1 WtCom= 1.00D+00 WtEn= 0.00D+00
 Coeff-Com: -0.275D-01-0.865D-01-0.669D-01 0.118D+01
 Coeff:     -0.275D-01-0.865D-01-0.669D-01 0.118D+01
 Gap=     0.360 Goal=   None    Shift=    0.000
 RMSDP=2.64D-07 MaxDP=8.27D-06 DE=-1.42D-08 OVMax= 5.95D-05

 Cycle  13  Pass 1  IDiag  1:
 E= -323.429602290316     Delta-E=       -0.000000004363 Rises=F Damp=F
 DIIS: error= 1.49D-06 at cycle   5 NSaved=   5.
 NSaved= 5 IEnMin= 5 EnMin= -323.429602290316     IErMin= 5 ErrMin= 1.49D-06
 ErrMax= 1.49D-06  0.00D+00 EMaxC= 1.00D-01 BMatC= 2.81D-10 BMatP= 6.88D-10
 IDIUse=1 WtCom= 1.00D+00 WtEn= 0.00D+00
 Coeff-Com:  0.126D-01-0.123D+00-0.301D+00 0.420D+00 0.992D+00
 Coeff:      0.126D-01-0.123D+00-0.301D+00 0.420D+00 0.992D+00
 Gap=     0.360 Goal=   None    Shift=    0.000
 RMSDP=1.69D-07 MaxDP=5.05D-06 DE=-4.36D-09 OVMax= 3.48D-05

 Cycle  14  Pass 1  IDiag  1:
 E= -323.429602291415     Delta-E=       -0.000000001099 Rises=F Damp=F
 DIIS: error= 3.19D-07 at cycle   6 NSaved=   6.
 NSaved= 6 IEnMin= 6 EnMin= -323.429602291415     IErMin= 6 ErrMin= 3.19D-07
 ErrMax= 3.19D-07  0.00D+00 EMaxC= 1.00D-01 BMatC= 1.47D-11 BMatP= 2.81D-10
 IDIUse=1 WtCom= 1.00D+00 WtEn= 0.00D+00
 Coeff-Com:  0.554D-02-0.243D-01-0.801D-01 0.414D-01 0.261D+00 0.796D+00
 Coeff:      0.554D-02-0.243D-01-0.801D-01 0.414D-01 0.261D+00 0.796D+00
 Gap=     0.360 Goal=   None    Shift=    0.000
 RMSDP=2.34D-08 MaxDP=7.98D-07 DE=-1.10D-09 OVMax= 5.39D-06

 Cycle  15  Pass 1  IDiag  1:
 E= -323.429602277171     Delta-E=        0.000000014244 Rises=F Damp=F
 DIIS: error= 1.32D-07 at cycle   7 NSaved=   7.
 NSaved= 7 IEnMin= 6 EnMin= -323.429602291415     IErMin= 7 ErrMin= 1.32D-07
 ErrMax= 1.32D-07  0.00D+00 EMaxC= 1.00D-01 BMatC= 5.32D-12 BMatP= 1.47D-11
 IDIUse=1 WtCom= 1.00D+00 WtEn= 0.00D+00
 Coeff-Com:  0.587D-03 0.826D-02 0.666D-02-0.481D-01-0.396D-01 0.373D+00
 Coeff-Com:  0.699D+00
 Coeff:      0.587D-03 0.826D-02 0.666D-02-0.481D-01-0.396D-01 0.373D+00
 Coeff:      0.699D+00
 Gap=     0.360 Goal=   None    Shift=    0.000
 RMSDP=1.20D-08 MaxDP=3.67D-07 DE= 1.42D-08 OVMax= 1.60D-06

 Cycle  16  Pass 1  IDiag  1:
 E= -323.429602277179     Delta-E=       -0.000000000007 Rises=F Damp=F
 DIIS: error= 5.46D-08 at cycle   8 NSaved=   8.
 NSaved= 8 IEnMin= 6 EnMin= -323.429602291415     IErMin= 8 ErrMin= 5.46D-08
 ErrMax= 5.46D-08  0.00D+00 EMaxC= 1.00D-01 BMatC= 4.35D-13 BMatP= 5.32D-12
 IDIUse=1 WtCom= 1.00D+00 WtEn= 0.00D+00
 Coeff-Com: -0.525D-03 0.671D-02 0.124D-01-0.222D-01-0.517D-01 0.497D-01
 Coeff-Com:  0.250D+00 0.756D+00
 Coeff:     -0.525D-03 0.671D-02 0.124D-01-0.222D-01-0.517D-01 0.497D-01
 Coeff:      0.250D+00 0.756D+00
 Gap=     0.360 Goal=   None    Shift=    0.000
 RMSDP=3.41D-09 MaxDP=1.21D-07 DE=-7.28D-12 OVMax= 4.38D-07

 SCF Done:  E(RLC-wPBE) =  -323.429602277     A.U. after   16 cycles
            NFock= 16  Conv=0.34D-08     -V/T= 2.0038
 KE= 3.222166054333D+02 PE=-1.308582259005D+03 EE= 3.860973868448D+02
 Leave Link  502 at Fri Aug 27 00:11:52 2021, MaxMem= 17179869184 cpu:       355.0
 (Enter /public3/home/sc51754/softwares/g09e01/l601.exe)
 Copying SCF densities to generalized density rwf, IOpCl= 0 IROHF=0.

 **********************************************************************

            Population analysis using the SCF density.

 **********************************************************************

 Orbital symmetries:
       Occupied  (A') (A') (A') (A') (A') (A') (A') (A') (A') (A')
                 (A') (A') (A') (A') (A') (A') (A') (A") (A') (A')
                 (A') (A") (A") (A') (A")
       Virtual   (A") (A') (A") (A') (A') (A') (A') (A') (A") (A')
                 (A") (A') (A') (A') (A") (A") (A') (A') (A") (A')
                 (A') (A') (A") (A') (A') (A') (A') (A') (A') (A')
                 (A") (A') (A') (A') (A") (A') (A') (A') (A') (A')
                 (A') (A') (A") (A') (A') (A') (A") (A') (A") (A")
                 (A') (A") (A') (A') (A") (A') (A') (A') (A') (A")
                 (A') (A') (A") (A") (A') (A') (A') (A") (A') (A")
                 (A") (A') (A') (A") (A') (A") (A') (A") (A') (A')
                 (A") (A') (A') (A") (A") (A') (A') (A') (A") (A")
                 (A') (A') (A") (A') (A') (A') (A') (A') (A") (A')
                 (A') (A') (A') (A") (A') (A') (A") (A') (A') (A')
                 (A") (A') (A') (A') (A') (A') (A") (A') (A') (A")
                 (A') (A') (A') (A") (A') (A") (A") (A") (A") (A')
                 (A') (A") (A') (A') (A") (A') (A") (A') (A') (A')
                 (A') (A') (A") (A') (A') (A") (A') (A') (A') (A')
                 (A') (A") (A") (A") (A") (A") (A') (A") (A') (A")
                 (A') (A") (A') (A') (A") (A') (A') (A') (A') (A")
                 (A") (A') (A') (A") (A") (A') (A') (A") (A") (A")
                 (A') (A") (A') (A") (A") (A') (A") (A') (A') (A")
                 (A') (A") (A') (A") (A') (A") (A') (A') (A") (A')
                 (A') (A") (A') (A") (A') (A') (A") (A') (A') (A')
                 (A") (A') (A") (A') (A") (A') (A") (A') (A') (A')
                 (A") (A') (A") (A') (A") (A') (A') (A") (A') (A')
                 (A') (A') (A') (A") (A') (A') (A') (A") (A') (A')
                 (A') (A") (A') (A') (A') (A') (A') (A') (A') (A')
                 (A') (A') (A') (A') (A')
 The electronic state is 1-A'.
 Alpha  occ. eigenvalues --  -18.92030 -14.26460 -10.21421 -10.17822 -10.14101
 Alpha  occ. eigenvalues --  -10.11960 -10.11710  -1.18173  -1.10508  -0.97573
 Alpha  occ. eigenvalues --   -0.90945  -0.79976  -0.78013  -0.70100  -0.64279
 Alpha  occ. eigenvalues --   -0.62035  -0.59208  -0.58705  -0.55432  -0.51480
 Alpha  occ. eigenvalues --   -0.49833  -0.47992  -0.43219  -0.37757  -0.32907
 Alpha virt. eigenvalues --    0.03085   0.07886   0.08855   0.09886   0.11318
 Alpha virt. eigenvalues --    0.13886   0.14508   0.21718   0.21924   0.23000
 Alpha virt. eigenvalues --    0.23998   0.24368   0.26417   0.27834   0.27839
 Alpha virt. eigenvalues --    0.29105   0.31239   0.32189   0.35614   0.35989
 Alpha virt. eigenvalues --    0.36370   0.37896   0.38402   0.38700   0.40193
 Alpha virt. eigenvalues --    0.42080   0.44006   0.45301   0.47876   0.49942
 Alpha virt. eigenvalues --    0.50639   0.51784   0.54702   0.56290   0.58528
 Alpha virt. eigenvalues --    0.58811   0.61107   0.62345   0.64965   0.69468
 Alpha virt. eigenvalues --    0.71673   0.72357   0.74099   0.75022   0.77363
 Alpha virt. eigenvalues --    0.80669   0.86246   0.86442   0.88806   0.91031
 Alpha virt. eigenvalues --    0.91460   0.94725   1.00474   1.02216   1.02970
 Alpha virt. eigenvalues --    1.05404   1.07153   1.09633   1.11368   1.17210
 Alpha virt. eigenvalues --    1.18678   1.20832   1.21806   1.24732   1.24734
 Alpha virt. eigenvalues --    1.25718   1.28391   1.29768   1.30735   1.35043
 Alpha virt. eigenvalues --    1.35893   1.36080   1.37245   1.39128   1.39608
 Alpha virt. eigenvalues --    1.45050   1.48787   1.51324   1.52532   1.54776
 Alpha virt. eigenvalues --    1.56159   1.58470   1.59714   1.61446   1.66046
 Alpha virt. eigenvalues --    1.67474   1.69869   1.73266   1.76819   1.77619
 Alpha virt. eigenvalues --    1.77656   1.79083   1.82531   1.83110   1.86368
 Alpha virt. eigenvalues --    1.90454   1.91085   1.96548   1.96896   2.00438
 Alpha virt. eigenvalues --    2.02769   2.07150   2.11121   2.12265   2.12321
 Alpha virt. eigenvalues --    2.18260   2.18402   2.25265   2.26494   2.32053
 Alpha virt. eigenvalues --    2.33034   2.35090   2.37671   2.39050   2.42232
 Alpha virt. eigenvalues --    2.47736   2.61657   2.72585   2.75237   2.97034
 Alpha virt. eigenvalues --    2.98084   3.00973   3.04151   3.05184   3.26231
 Alpha virt. eigenvalues --    3.27931   3.31538   3.32604   3.34443   3.35163
 Alpha virt. eigenvalues --    3.37957   3.42021   3.43239   3.45940   3.48953
 Alpha virt. eigenvalues --    3.53004   3.57610   3.60479   3.64960   3.66771
 Alpha virt. eigenvalues --    3.69573   3.72846   3.76431   3.77044   3.78561
 Alpha virt. eigenvalues --    3.79350   3.81935   3.88299   3.96273   3.98060
 Alpha virt. eigenvalues --    4.01729   4.04004   4.05739   4.06686   4.09574
 Alpha virt. eigenvalues --    4.11117   4.12747   4.13817   4.17647   4.18401
 Alpha virt. eigenvalues --    4.19726   4.23139   4.24873   4.25376   4.27570
 Alpha virt. eigenvalues --    4.31065   4.31717   4.32782   4.34617   4.34627
 Alpha virt. eigenvalues --    4.36855   4.37407   4.38271   4.39813   4.42554
 Alpha virt. eigenvalues --    4.42671   4.43990   4.44538   4.46008   4.50547
 Alpha virt. eigenvalues --    4.51756   4.55896   4.56485   4.57903   4.58849
 Alpha virt. eigenvalues --    4.60154   4.62061   4.62338   4.66856   4.68335
 Alpha virt. eigenvalues --    4.68983   4.70014   4.72701   4.73981   4.78794
 Alpha virt. eigenvalues --    4.82688   4.85367   4.88239   4.94691   4.95889
 Alpha virt. eigenvalues --    4.98451   5.02893   5.03004   5.06963   5.08537
 Alpha virt. eigenvalues --    5.12614   5.18698   5.22895   5.27196   5.29270
 Alpha virt. eigenvalues --    5.32591   5.35849   5.41786   5.42193   5.44096
 Alpha virt. eigenvalues --    5.45423   5.50457   5.50630   5.52435   5.56871
 Alpha virt. eigenvalues --    5.58399   5.64772   5.67966   5.68524   5.68870
 Alpha virt. eigenvalues --    5.74262   5.80102   5.82657   5.83114   5.88739
 Alpha virt. eigenvalues --    5.93618   6.01586   6.06555   6.07525   6.16850
 Alpha virt. eigenvalues --    6.19801   6.21598   6.25839   6.31166   6.38194
 Alpha virt. eigenvalues --    6.47473   6.61298   6.61685   6.68568   6.89929
 Alpha virt. eigenvalues --    7.06199   7.07549   7.34635   9.61899  12.32854
 Alpha virt. eigenvalues --   13.19287  14.68657  17.78144  18.22675  22.68221
          Condensed to atoms (all electrons):
               1          2          3          4          5          6
     1  O    7.978739  -0.118817   0.647673  -0.067804   0.004969   0.005625
     2  N   -0.118817   6.399871   0.367006  -0.048790   0.382740  -0.012503
     3  C    0.647673   0.367006   4.297812   0.413836  -0.040302  -0.035380
     4  C   -0.067804  -0.048790   0.413836   4.971544  -0.035244   0.560020
     5  C    0.004969   0.382740  -0.040302  -0.035244   4.560859  -0.084123
     6  C    0.005625  -0.012503  -0.035380   0.560020  -0.084123   4.706683
     7  C    0.000721  -0.064319  -0.016964  -0.068074   0.636765   0.441254
     8  H    0.011810   0.396715  -0.023049   0.012534  -0.028488  -0.003939
     9  H    0.003322   0.004873  -0.033553   0.446659  -0.000300  -0.031516
    10  H   -0.000859  -0.033700   0.001204  -0.003945   0.423518   0.006623
    11  H   -0.000290  -0.001591   0.004059  -0.026706   0.006181   0.425549
    12  H    0.000011   0.004116  -0.000527   0.004598  -0.025971  -0.025728
               7          8          9         10         11         12
     1  O    0.000721   0.011810   0.003322  -0.000859  -0.000290   0.000011
     2  N   -0.064319   0.396715   0.004873  -0.033700  -0.001591   0.004116
     3  C   -0.016964  -0.023049  -0.033553   0.001204   0.004059  -0.000527
     4  C   -0.068074   0.012534   0.446659  -0.003945  -0.026706   0.004598
     5  C    0.636765  -0.028488  -0.000300   0.423518   0.006181  -0.025971
     6  C    0.441254  -0.003939  -0.031516   0.006623   0.425549  -0.025728
     7  C    4.857675   0.006880   0.004524  -0.029178  -0.033189   0.439208
     8  H    0.006880   0.470822  -0.000248  -0.009477   0.000180  -0.000247
     9  H    0.004524  -0.000248   0.552429   0.000199  -0.005233  -0.000098
    10  H   -0.029178  -0.009477   0.000199   0.577776  -0.000302  -0.002185
    11  H   -0.033189   0.000180  -0.005233  -0.000302   0.571835  -0.004491
    12  H    0.439208  -0.000247  -0.000098  -0.002185  -0.004491   0.561470
 Mulliken charges:
               1
     1  O   -0.465100
     2  N   -0.275601
     3  C    0.418185
     4  C   -0.158628
     5  C    0.199396
     6  C    0.047434
     7  C   -0.175303
     8  H    0.166505
     9  H    0.058942
    10  H    0.070327
    11  H    0.063998
    12  H    0.049843
 Sum of Mulliken charges =  -0.00000
 Mulliken charges with hydrogens summed into heavy atoms:
               1
     1  O   -0.465100
     2  N   -0.109095
     3  C    0.418185
     4  C   -0.099686
     5  C    0.269723
     6  C    0.111432
     7  C   -0.125460
 Electronic spatial extent (au):  <R**2>=            624.9783
 Charge=             -0.0000 electrons
 Dipole moment (field-independent basis, Debye):
    X=             -1.2054    Y=             -4.2087    Z=             -0.0000  Tot=              4.3779
 Quadrupole moment (field-independent basis, Debye-Ang):
   XX=            -30.9626   YY=            -47.4481   ZZ=            -42.7759
   XY=              0.1242   XZ=              0.0000   YZ=             -0.0000
 Traceless Quadrupole moment (field-independent basis, Debye-Ang):
   XX=              9.4329   YY=             -7.0526   ZZ=             -2.3804
   XY=              0.1242   XZ=              0.0000   YZ=             -0.0000
 Octapole moment (field-independent basis, Debye-Ang**2):
  XXX=            -11.4355  YYY=            -31.0807  ZZZ=              0.0000  XYY=              0.1315
  XXY=              0.5634  XXZ=              0.0000  XZZ=             -2.1043  YZZ=              5.3393
  YYZ=             -0.0000  XYZ=              0.0000
 Hexadecapole moment (field-independent basis, Debye-Ang**3):
 XXXX=           -231.7013 YYYY=           -536.3169 ZZZZ=            -45.6994 XXXY=              2.4830
 XXXZ=              0.0000 YYYX=              7.5042 YYYZ=             -0.0000 ZZZX=              0.0000
 ZZZY=             -0.0000 XXYY=           -114.3710 XXZZ=            -60.0791 YYZZ=            -95.2976
 XXYZ=             -0.0000 YYXZ=              0.0000 ZZXY=              1.1624
 N-N= 2.768386644497D+02 E-N=-1.308582262157D+03  KE= 3.222166054333D+02
 Symmetry A'   KE= 3.106440422989D+02
 Symmetry A"   KE= 1.157256313433D+01
 No NMR shielding tensors so no spin-rotation constants.
 Leave Link  601 at Fri Aug 27 00:11:53 2021, MaxMem= 17179869184 cpu:        68.8
 (Enter /public3/home/sc51754/softwares/g09e01/l701.exe)
 Compute integral first derivatives.
 ... and contract with generalized density number  0.
 Leave Link  701 at Fri Aug 27 00:11:55 2021, MaxMem= 17179869184 cpu:        78.5
 (Enter /public3/home/sc51754/softwares/g09e01/l702.exe)
 L702 exits ... SP integral derivatives will be done elsewhere.
 Leave Link  702 at Fri Aug 27 00:11:55 2021, MaxMem= 17179869184 cpu:         0.3
 (Enter /public3/home/sc51754/softwares/g09e01/l703.exe)
 Compute integral first derivatives, UseDBF=F ICtDFT=           0.
 Integral derivatives from FoFJK, PRISM(SPDF).
 Calling FoFJK, ICntrl=      2127 FMM=F ISym2X=1 I1Cent= 0 IOpClX= 0 NMat=1 NMatS=1 NMatT=0.
 FoFJK:  IHMeth= 1 ICntrl=    2127 DoSepK=T KAlg= 0 I1Cent=   0 FoldK=F
 IRaf=         1 NMat=   1 IRICut=       1 DoRegI=T DoRafI=F ISym2E= 1.
 FoFCou: FMM=F IPFlag=           0 FMFlag=      100000 FMFlg1=         800
         NFxFlg=           0 DoJE=F BraDBF=F KetDBF=F FulRan=T
         wScrn=  0.000000 ICntrl=    2527 IOpCl=  0 I1Cent=           0 NGrid=           0
         NMat0=    1 NMatS0=      1 NMatT0=    0 NMatD0=    1 NMtDS0=    0 NMtDT0=    0
 Petite list used in FoFCou.
 Leave Link  703 at Fri Aug 27 00:11:59 2021, MaxMem= 17179869184 cpu:       247.0
 (Enter /public3/home/sc51754/softwares/g09e01/l716.exe)
 Dipole        =-4.74254197D-01-1.65582700D+00-4.31420536D-32
 ***** Axes restored to original set *****
 -------------------------------------------------------------------
 Center     Atomic                   Forces (Hartrees/Bohr)
 Number     Number              X              Y              Z
 -------------------------------------------------------------------
      1        8          -0.000063548    0.002132588   -0.000000000
      2        7           0.004221644    0.004612630   -0.000000000
      3        6          -0.007251294   -0.008282278    0.000000000
      4        6           0.002381587   -0.005135055    0.000000000
      5        6           0.007047181   -0.001138535    0.000000000
      6        6           0.000839525    0.007580379   -0.000000000
      7        6          -0.007441077    0.001363092   -0.000000000
      8        1          -0.000229908   -0.000274521    0.000000000
      9        1           0.000500949   -0.000232498    0.000000000
     10        1          -0.000439790    0.000096814   -0.000000000
     11        1           0.000446651    0.000054318    0.000000000
     12        1          -0.000011920   -0.000776934    0.000000000
 -------------------------------------------------------------------
 Cartesian Forces:  Max     0.008282278 RMS     0.003182699
 Leave Link  716 at Fri Aug 27 00:11:59 2021, MaxMem= 17179869184 cpu:         1.2
 (Enter /public3/home/sc51754/softwares/g09e01/l103.exe)

 GradGradGradGradGradGradGradGradGradGradGradGradGradGradGradGradGradGrad
 Berny optimization.
 FormGI is forming the generalized inverse of G from B-inverse, IUseBI=4.
 Internal  Forces:  Max     0.007297112 RMS     0.001666665
 Search for a local minimum.
 Step number   1 out of a maximum of   64
 All quantities printed in internal units (Hartrees-Bohrs-Radians)
 RMS Force = .16667D-02 SwitMx=.10000D-02 MixMth= 1
 Mixed Optimization -- RFO/linear search
 Second derivative matrix not updated -- first step.
 ITU=  0
     Eigenvalues ---    0.01577   0.01761   0.01972   0.02080   0.02183
     Eigenvalues ---    0.02246   0.02365   0.02483   0.02557   0.16000
     Eigenvalues ---    0.16000   0.16000   0.16000   0.16000   0.22000
     Eigenvalues ---    0.22000   0.23415   0.25000   0.35622   0.35864
     Eigenvalues ---    0.35940   0.36221   0.37867   0.40757   0.44267
     Eigenvalues ---    0.46319   0.50118   0.53776   0.54239   0.98595
 RFO step:  Lambda=-3.23866257D-04 EMin= 1.57720798D-02
 Linear search not attempted -- first point.
 Iteration  1 RMS(Cart)=  0.00393541 RMS(Int)=  0.00000611
 Iteration  2 RMS(Cart)=  0.00000742 RMS(Int)=  0.00000116
 Iteration  3 RMS(Cart)=  0.00000000 RMS(Int)=  0.00000116
 ITry= 1 IFail=0 DXMaxC= 1.21D-02 DCOld= 1.00D+10 DXMaxT= 3.00D-01 DXLimC= 3.00D+00 Rises=F
 ClnCor:  largest displacement from symmetrization is 4.54D-12 for atom    11.
 Variable       Old X    -DE/DX   Delta X   Delta X   Delta X     New X
                                 (Linear)    (Quad)   (Total)
    R1        2.29207   0.00213   0.00000   0.00216   0.00216   2.29423
    R2        2.65138  -0.00730   0.00000  -0.01632  -0.01632   2.63505
    R3        2.56109  -0.00103   0.00000  -0.00213  -0.00213   2.55896
    R4        1.90473   0.00006   0.00000   0.00014   0.00014   1.90487
    R5        2.72731   0.00150   0.00000   0.00399   0.00399   2.73130
    R6        2.55600  -0.00615   0.00000  -0.01105  -0.01105   2.54495
    R7        2.04176   0.00029   0.00000   0.00082   0.00082   2.04258
    R8        2.55244  -0.00580   0.00000  -0.01068  -0.01068   2.54175
    R9        2.04295   0.00035   0.00000   0.00097   0.00097   2.04391
   R10        2.67947   0.00246   0.00000   0.00589   0.00589   2.68536
   R11        2.04676   0.00037   0.00000   0.00103   0.00103   2.04779
   R12        2.03737   0.00078   0.00000   0.00214   0.00214   2.03951
    A1        2.18960  -0.00074   0.00000  -0.00407  -0.00407   2.18552
    A2        1.99125   0.00070   0.00000   0.00409   0.00409   1.99535
    A3        2.10233   0.00004   0.00000  -0.00002  -0.00002   2.10232
    A4        2.09504  -0.00057   0.00000  -0.00231  -0.00231   2.09274
    A5        2.21834  -0.00096   0.00000  -0.00389  -0.00389   2.21444
    A6        1.96981   0.00153   0.00000   0.00619   0.00620   1.97600
    A7        2.12410  -0.00127   0.00000  -0.00476  -0.00476   2.11934
    A8        2.02595   0.00112   0.00000   0.00540   0.00540   2.03135
    A9        2.13313   0.00015   0.00000  -0.00064  -0.00064   2.13249
   A10        2.10267   0.00118   0.00000   0.00469   0.00469   2.10735
   A11        2.03035  -0.00089   0.00000  -0.00421  -0.00421   2.02614
   A12        2.15017  -0.00029   0.00000  -0.00048  -0.00048   2.14969
   A13        2.12246  -0.00009   0.00000   0.00058   0.00058   2.12303
   A14        2.08387  -0.00022   0.00000  -0.00192  -0.00192   2.08196
   A15        2.07686   0.00031   0.00000   0.00134   0.00134   2.07819
   A16        2.05775  -0.00061   0.00000  -0.00262  -0.00263   2.05512
   A17        2.10204   0.00028   0.00000   0.00113   0.00113   2.10318
   A18        2.12340   0.00033   0.00000   0.00149   0.00149   2.12489
    D1        3.14159   0.00000   0.00000   0.00000   0.00000   3.14159
    D2       -0.00000  -0.00000   0.00000  -0.00000   0.00000   0.00000
    D3        0.00000   0.00000   0.00000   0.00000   0.00000   0.00000
    D4        3.14159  -0.00000   0.00000  -0.00000   0.00000   3.14159
    D5        0.00000   0.00000   0.00000   0.00000   0.00000   0.00000
    D6        3.14159  -0.00000   0.00000  -0.00000   0.00000   3.14159
    D7        3.14159  -0.00000   0.00000   0.00000   0.00000   3.14159
    D8       -0.00000   0.00000   0.00000   0.00000   0.00000   0.00000
    D9        3.14159   0.00000   0.00000  -0.00000   0.00000   3.14159
   D10        0.00000  -0.00000   0.00000  -0.00000  -0.00000   0.00000
   D11        0.00000  -0.00000   0.00000   0.00000   0.00000   0.00000
   D12        3.14159  -0.00000   0.00000   0.00000   0.00000   3.14159
   D13        0.00000  -0.00000   0.00000  -0.00000  -0.00000   0.00000
   D14        3.14159  -0.00000   0.00000   0.00000   0.00000   3.14159
   D15        3.14159  -0.00000   0.00000  -0.00000   0.00000   3.14159
   D16       -0.00000  -0.00000   0.00000  -0.00000   0.00000   0.00000
   D17       -0.00000  -0.00000   0.00000  -0.00000   0.00000   0.00000
   D18        3.14159   0.00000   0.00000  -0.00000   0.00000   3.14159
   D19        3.14159   0.00000   0.00000   0.00000   0.00000   3.14159
   D20       -0.00000   0.00000   0.00000   0.00000   0.00000   0.00000
   D21        0.00000   0.00000   0.00000   0.00000   0.00000   0.00000
   D22        3.14159   0.00000   0.00000   0.00000   0.00000   3.14159
   D23        3.14159   0.00000   0.00000  -0.00000   0.00000   3.14159
   D24        0.00000   0.00000   0.00000   0.00000   0.00000   0.00000
         Item               Value     Threshold  Converged?
 Maximum Force            0.007297     0.000450     NO 
 RMS     Force            0.001667     0.000300     NO 
 Maximum Displacement     0.012059     0.001800     NO 
 RMS     Displacement     0.003937     0.001200     NO 
 Predicted change in Energy=-1.620559D-04
 Lowest energy point so far.  Saving SCF results.
 GradGradGradGradGradGradGradGradGradGradGradGradGradGradGradGradGradGrad

 Leave Link  103 at Fri Aug 27 00:12:01 2021, MaxMem= 17179869184 cpu:        70.9
 (Enter /public3/home/sc51754/softwares/g09e01/l202.exe)
                          Input orientation:                          
 ---------------------------------------------------------------------
 Center     Atomic      Atomic             Coordinates (Angstroms)
 Number     Number       Type             X           Y           Z
 ---------------------------------------------------------------------
      1          8           0       -0.134396    2.262618   -0.000000
      2          7           0       -1.130555    0.234321   -0.000000
      3          6           0       -0.003682    1.055623   -0.000000
      4          6           0        1.239131    0.317769    0.000000
      5          6           0       -1.110123   -1.119669   -0.000000
      6          6           0        1.256328   -1.028849    0.000000
      7          6           0        0.056147   -1.789701    0.000000
      8          1           0       -2.007110    0.732055   -0.000000
      9          1           0        2.146514    0.905108    0.000000
     10          1           0       -2.074224   -1.609926   -0.000000
     11          1           0        2.208150   -1.546843    0.000000
     12          1           0        0.067925   -2.868900    0.000000
 ---------------------------------------------------------------------
                    Distance matrix (angstroms):
                    1          2          3          4          5
     1  O    0.000000
     2  N    2.259717   0.000000
     3  C    1.214052   1.394410   0.000000
     4  C    2.380969   2.371155   1.445342   0.000000
     5  C    3.520214   1.354144   2.440513   2.754128   0.000000
     6  C    3.573215   2.700520   2.435703   1.346728   2.368192
     7  C    4.056796   2.346258   2.845953   2.416792   1.345038
     8  H    2.418611   1.008012   2.029389   3.272570   2.057540
     9  H    2.654314   3.345017   2.155458   1.080884   3.834762
    10  H    4.331227   2.071656   3.375247   3.833318   1.081593
    11  H    4.472082   3.784111   3.415411   2.101375   3.345656
    12  H    5.135505   3.326610   3.925177   3.395082   2.108935
                    6          7          8          9         10
     6  C    0.000000
     7  C    1.421032   0.000000
     8  H    3.708209   3.258264   0.000000
     9  H    2.128995   3.410518   4.157228   0.000000
    10  H    3.380862   2.137942   2.342943   4.913250   0.000000
    11  H    1.083644   2.165663   4.791847   2.452726   4.282839
    12  H    2.190454   1.079263   4.156038   4.308558   2.484717
                   11         12
    11  H    0.000000
    12  H    2.515630   0.000000
 Stoichiometry    C5H5NO
 Framework group  CS[SG(C5H5NO)]
 Deg. of freedom    21
 Full point group                 CS      NOp   2
 RotChk:  IX=0 Diff= 4.37D-03
 Largest Abelian subgroup         CS      NOp   2
 Largest concise Abelian subgroup C1      NOp   1
                         Standard orientation:                         
 ---------------------------------------------------------------------
 Center     Atomic      Atomic             Coordinates (Angstroms)
 Number     Number       Type             X           Y           Z
 ---------------------------------------------------------------------
      1          8           0       -0.126985    2.263746   -0.000000
      2          7           0       -1.129404    0.238536   -0.000000
      3          6           0       -0.000000    1.056354    0.000000
      4          6           0        1.240528    0.314665    0.000000
      5          6           0       -1.113153   -1.115511   -0.000000
      6          6           0        1.253566   -1.032000    0.000000
      7          6           0        0.051041   -1.789142    0.000000
      8          1           0       -2.004418    0.738975   -0.000000
      9          1           0        2.149721    0.899199    0.000000
     10          1           0       -2.078764   -1.602788   -0.000000
     11          1           0        2.203784   -1.552931    0.000000
     12          1           0        0.059487   -2.868372    0.000000
 ---------------------------------------------------------------------
 Rotational constants (GHZ):      5.7427751      2.8352887      1.8981469
 Leave Link  202 at Fri Aug 27 00:12:01 2021, MaxMem= 17179869184 cpu:         7.6
 (Enter /public3/home/sc51754/softwares/g09e01/l301.exe)
 Basis read from rwf:  (5D, 7F)
 No pseudopotential information found on rwf file.
 There are   223 symmetry adapted cartesian basis functions of A'  symmetry.
 There are    97 symmetry adapted cartesian basis functions of A"  symmetry.
 There are   190 symmetry adapted basis functions of A'  symmetry.
 There are    90 symmetry adapted basis functions of A"  symmetry.
   280 basis functions,   475 primitive gaussians,   320 cartesian basis functions
    25 alpha electrons       25 beta electrons
       nuclear repulsion energy       277.2432512787 Hartrees.
 IExCor=32609 DFT=T Ex+Corr=LC-wPBE ExCW=0 ScaHFX=  1.000000
 ScaDFX=  1.000000  0.000000  1.000000  1.000000 ScalE2=  1.000000  1.000000
 IRadAn=      0 IRanWt=     -1 IRanGd=            0 ICorTp=0 IEmpDi=  4
  HFx wShort=  0.000000 wLong=  0.400000 cFull=  0.000000 cShort=  0.000000 cLong=  1.000000
  DFx wShort=  0.000000 wLong=  0.400000 cFull=  0.000000 cShort=  0.000000 cLong=  1.000000
 NAtoms=   12 NActive=   12 NUniq=   12 SFac= 1.00D+00 NAtFMM=   60 NAOKFM=F Big=F
 Integral buffers will be    131072 words long.
 Raffenetti 2 integral format.
 Two-electron integral symmetry is turned on.
 No density basis found on file   724.
 Leave Link  301 at Fri Aug 27 00:12:01 2021, MaxMem= 17179869184 cpu:         2.8
 (Enter /public3/home/sc51754/softwares/g09e01/l302.exe)
 NPDir=0 NMtPBC=     1 NCelOv=     1 NCel=       1 NClECP=     1 NCelD=      1
         NCelK=      1 NCelE2=     1 NClLst=     1 CellRange=     0.0.
 One-electron integrals computed using PRISM.
 NBasis=   280 RedAO= T EigKep=  2.27D-04  NBF=   190    90
 NBsUse=   280 1.00D-06 EigRej= -1.00D+00 NBFU=   190    90
 Precomputing XC quadrature grid using
 IXCGrd= 4 IRadAn=           0 IRanWt=          -1 IRanGd=           0 AccXCQ= 0.00D+00.
 Generated NRdTot=       0 NPtTot=           0 NUsed=           0 NTot=          32
 NSgBfM=   320   320   320   320   320 MxSgAt=    12 MxSgA2=    12.
 Leave Link  302 at Fri Aug 27 00:12:02 2021, MaxMem= 17179869184 cpu:        47.5
 (Enter /public3/home/sc51754/softwares/g09e01/l303.exe)
 DipDrv:  MaxL=1.
 Leave Link  303 at Fri Aug 27 00:12:02 2021, MaxMem= 17179869184 cpu:        14.2
 (Enter /public3/home/sc51754/softwares/g09e01/l401.exe)
 Initial guess from the checkpoint file:  "PY_LC-wPBE_PC2_OPT_FREQ.chk"
 B after Tr=     0.000000    0.000000   -0.000000
         Rot=    0.999999   -0.000000    0.000000    0.001285 Ang=   0.15 deg.
 Guess basis will be translated and rotated to current coordinates.
 JPrj=2 DoOrth=T DoCkMO=T.
 Initial guess orbital symmetries:
       Occupied  (A') (A') (A') (A') (A') (A') (A') (A') (A') (A')
                 (A') (A') (A') (A') (A') (A') (A') (A") (A') (A')
                 (A') (A") (A") (A') (A")
       Virtual   (A') (A') (A') (A') (A') (A') (A') (A') (A') (A')
                 (A') (A') (A') (A') (A') (A') (A') (A') (A') (A')
                 (A') (A') (A') (A') (A') (A') (A') (A') (A') (A')
                 (A') (A') (A') (A') (A') (A') (A') (A') (A') (A')
                 (A') (A') (A') (A') (A') (A') (A') (A') (A') (A')
                 (A') (A') (A') (A') (A') (A') (A') (A') (A') (A')
                 (A') (A') (A') (A') (A') (A') (A') (A') (A') (A')
                 (A') (A') (A') (A') (A') (A') (A') (A') (A') (A')
                 (A') (A') (A') (A') (A') (A') (A') (A') (A') (A')
                 (A') (A') (A') (A') (A') (A') (A') (A') (A') (A')
                 (A') (A') (A') (A') (A') (A') (A') (A') (A') (A')
                 (A') (A') (A') (A') (A') (A') (A') (A') (A') (A')
                 (A') (A') (A') (A') (A') (A') (A') (A') (A') (A')
                 (A') (A') (A') (A') (A') (A') (A') (A') (A') (A')
                 (A') (A') (A') (A') (A') (A') (A') (A') (A') (A')
                 (A') (A') (A') (A') (A') (A') (A') (A') (A') (A')
                 (A') (A') (A') (A') (A') (A') (A') (A') (A') (A")
                 (A") (A") (A") (A") (A") (A") (A") (A") (A") (A")
                 (A") (A") (A") (A") (A") (A") (A") (A") (A") (A")
                 (A") (A") (A") (A") (A") (A") (A") (A") (A") (A")
                 (A") (A") (A") (A") (A") (A") (A") (A") (A") (A")
                 (A") (A") (A") (A") (A") (A") (A") (A") (A") (A")
                 (A") (A") (A") (A") (A") (A") (A") (A") (A") (A")
                 (A") (A") (A") (A") (A") (A") (A") (A") (A") (A")
                 (A") (A") (A") (A") (A") (A") (A") (A") (A") (A")
                 (A") (A") (A") (A") (A")
 The electronic state of the initial guess is 1-A'.
 Leave Link  401 at Fri Aug 27 00:12:03 2021, MaxMem= 17179869184 cpu:        43.7
 (Enter /public3/home/sc51754/softwares/g09e01/l502.exe)
 Closed shell SCF:
 Using DIIS extrapolation, IDIIS=  1040.
 Integral symmetry usage will be decided dynamically.
 Keep R1 ints in memory in symmetry-blocked form, NReq=2335173138.
 IVT=      348658 IEndB=      348658 NGot= 17179869184 MDV= 16785904737
 LenX= 16785904737 LenY= 16785801896
 Requested convergence on RMS density matrix=1.00D-08 within 128 cycles.
 Requested convergence on MAX density matrix=1.00D-06.
 Requested convergence on             energy=1.00D-06.
 No special actions if energy rises.
 FoFCou: FMM=F IPFlag=           0 FMFlag=           0 FMFlg1=           0
         NFxFlg=           0 DoJE=F BraDBF=F KetDBF=F FulRan=T
         wScrn=  0.000000 ICntrl=     600 IOpCl=  0 I1Cent=           0 NGrid=           0
         NMat0=    1 NMatS0=  39340 NMatT0=    0 NMatD0=    1 NMtDS0=    0 NMtDT0=    0
 Petite list used in FoFCou.

 Cycle   1  Pass 1  IDiag  1:
 E= -323.429722011969    
 DIIS: error= 3.57D-04 at cycle   1 NSaved=   1.
 NSaved= 1 IEnMin= 1 EnMin= -323.429722011969     IErMin= 1 ErrMin= 3.57D-04
 ErrMax= 3.57D-04  0.00D+00 EMaxC= 1.00D-01 BMatC= 5.95D-05 BMatP= 5.95D-05
 IDIUse=3 WtCom= 9.96D-01 WtEn= 3.57D-03
 Coeff-Com:  0.100D+01
 Coeff-En:   0.100D+01
 Coeff:      0.100D+01
 Gap=     0.754 Goal=   None    Shift=    0.000
 RMSDP=2.77D-05 MaxDP=5.69D-04              OVMax= 2.67D-03

 Cycle   2  Pass 1  IDiag  1:
 E= -323.429786381871     Delta-E=       -0.000064369902 Rises=F Damp=F
 DIIS: error= 1.84D-04 at cycle   2 NSaved=   2.
 NSaved= 2 IEnMin= 2 EnMin= -323.429786381871     IErMin= 2 ErrMin= 1.84D-04
 ErrMax= 1.84D-04  0.00D+00 EMaxC= 1.00D-01 BMatC= 9.35D-06 BMatP= 5.95D-05
 IDIUse=3 WtCom= 9.98D-01 WtEn= 1.84D-03
 Coeff-Com:  0.145D+00 0.855D+00
 Coeff-En:   0.000D+00 0.100D+01
 Coeff:      0.144D+00 0.856D+00
 Gap=     0.362 Goal=   None    Shift=    0.000
 RMSDP=1.25D-05 MaxDP=6.60D-04 DE=-6.44D-05 OVMax= 1.16D-03

 Cycle   3  Pass 1  IDiag  1:
 E= -323.429792300268     Delta-E=       -0.000005918398 Rises=F Damp=F
 DIIS: error= 1.56D-04 at cycle   3 NSaved=   3.
 NSaved= 3 IEnMin= 3 EnMin= -323.429792300268     IErMin= 3 ErrMin= 1.56D-04
 ErrMax= 1.56D-04  0.00D+00 EMaxC= 1.00D-01 BMatC= 6.31D-06 BMatP= 9.35D-06
 IDIUse=3 WtCom= 9.98D-01 WtEn= 1.56D-03
 Coeff-Com: -0.559D-01 0.449D+00 0.607D+00
 Coeff-En:   0.000D+00 0.168D+00 0.832D+00
 Coeff:     -0.558D-01 0.449D+00 0.607D+00
 Gap=     0.362 Goal=   None    Shift=    0.000
 RMSDP=6.90D-06 MaxDP=3.48D-04 DE=-5.92D-06 OVMax= 1.05D-03

 Cycle   4  Pass 1  IDiag  1:
 E= -323.429797907698     Delta-E=       -0.000005607430 Rises=F Damp=F
 DIIS: error= 4.54D-05 at cycle   4 NSaved=   4.
 NSaved= 4 IEnMin= 4 EnMin= -323.429797907698     IErMin= 4 ErrMin= 4.54D-05
 ErrMax= 4.54D-05  0.00D+00 EMaxC= 1.00D-01 BMatC= 3.78D-07 BMatP= 6.31D-06
 IDIUse=1 WtCom= 1.00D+00 WtEn= 0.00D+00
 Coeff-Com: -0.223D-01-0.146D-01 0.167D+00 0.870D+00
 Coeff:     -0.223D-01-0.146D-01 0.167D+00 0.870D+00
 Gap=     0.362 Goal=   None    Shift=    0.000
 RMSDP=2.79D-06 MaxDP=8.64D-05 DE=-5.61D-06 OVMax= 4.91D-04

 Cycle   5  Pass 1  IDiag  1:
 E= -323.429798699282     Delta-E=       -0.000000791584 Rises=F Damp=F
 DIIS: error= 2.08D-05 at cycle   5 NSaved=   5.
 NSaved= 5 IEnMin= 5 EnMin= -323.429798699282     IErMin= 5 ErrMin= 2.08D-05
 ErrMax= 2.08D-05  0.00D+00 EMaxC= 1.00D-01 BMatC= 7.29D-08 BMatP= 3.78D-07
 IDIUse=1 WtCom= 1.00D+00 WtEn= 0.00D+00
 Coeff-Com:  0.408D-02-0.886D-01-0.317D-01 0.235D+00 0.882D+00
 Coeff:      0.408D-02-0.886D-01-0.317D-01 0.235D+00 0.882D+00
 Gap=     0.362 Goal=   None    Shift=    0.000
 RMSDP=1.68D-06 MaxDP=5.53D-05 DE=-7.92D-07 OVMax= 3.02D-04

 Cycle   6  Pass 1  IDiag  1:
 E= -323.429798921256     Delta-E=       -0.000000221974 Rises=F Damp=F
 DIIS: error= 1.40D-05 at cycle   6 NSaved=   6.
 NSaved= 6 IEnMin= 6 EnMin= -323.429798921256     IErMin= 6 ErrMin= 1.40D-05
 ErrMax= 1.40D-05  0.00D+00 EMaxC= 1.00D-01 BMatC= 1.18D-08 BMatP= 7.29D-08
 IDIUse=1 WtCom= 1.00D+00 WtEn= 0.00D+00
 Coeff-Com:  0.590D-02-0.222D-01-0.387D-01-0.143D+00 0.155D+00 0.104D+01
 Coeff:      0.590D-02-0.222D-01-0.387D-01-0.143D+00 0.155D+00 0.104D+01
 Gap=     0.362 Goal=   None    Shift=    0.000
 RMSDP=1.11D-06 MaxDP=3.61D-05 DE=-2.22D-07 OVMax= 2.53D-04

 Cycle   7  Pass 1  IDiag  1:
 E= -323.429798985634     Delta-E=       -0.000000064377 Rises=F Damp=F
 DIIS: error= 3.54D-06 at cycle   7 NSaved=   7.
 NSaved= 7 IEnMin= 7 EnMin= -323.429798985634     IErMin= 7 ErrMin= 3.54D-06
 ErrMax= 3.54D-06  0.00D+00 EMaxC= 1.00D-01 BMatC= 2.99D-09 BMatP= 1.18D-08
 IDIUse=1 WtCom= 1.00D+00 WtEn= 0.00D+00
 Coeff-Com:  0.732D-03 0.102D-01-0.186D-02-0.834D-01-0.156D+00 0.335D+00
 Coeff-Com:  0.895D+00
 Coeff:      0.732D-03 0.102D-01-0.186D-02-0.834D-01-0.156D+00 0.335D+00
 Coeff:      0.895D+00
 Gap=     0.362 Goal=   None    Shift=    0.000
 RMSDP=4.41D-07 MaxDP=1.22D-05 DE=-6.44D-08 OVMax= 8.73D-05

 Cycle   8  Pass 1  IDiag  1:
 E= -323.429798994039     Delta-E=       -0.000000008406 Rises=F Damp=F
 DIIS: error= 1.34D-06 at cycle   8 NSaved=   8.
 NSaved= 8 IEnMin= 8 EnMin= -323.429798994039     IErMin= 8 ErrMin= 1.34D-06
 ErrMax= 1.34D-06  0.00D+00 EMaxC= 1.00D-01 BMatC= 1.90D-10 BMatP= 2.99D-09
 IDIUse=1 WtCom= 1.00D+00 WtEn= 0.00D+00
 Coeff-Com: -0.763D-03 0.582D-02 0.752D-02 0.405D-02-0.636D-01-0.628D-01
 Coeff-Com:  0.186D+00 0.923D+00
 Coeff:     -0.763D-03 0.582D-02 0.752D-02 0.405D-02-0.636D-01-0.628D-01
 Coeff:      0.186D+00 0.923D+00
 Gap=     0.362 Goal=   None    Shift=    0.000
 RMSDP=1.38D-07 MaxDP=4.07D-06 DE=-8.41D-09 OVMax= 2.22D-05

 Cycle   9  Pass 1  IDiag  1:
 E= -323.429798994556     Delta-E=       -0.000000000517 Rises=F Damp=F
 DIIS: error= 2.76D-07 at cycle   9 NSaved=   9.
 NSaved= 9 IEnMin= 9 EnMin= -323.429798994556     IErMin= 9 ErrMin= 2.76D-07
 ErrMax= 2.76D-07  0.00D+00 EMaxC= 1.00D-01 BMatC= 1.62D-11 BMatP= 1.90D-10
 IDIUse=1 WtCom= 1.00D+00 WtEn= 0.00D+00
 Coeff-Com: -0.166D-03 0.192D-03 0.174D-02 0.568D-02-0.228D-02-0.265D-01
 Coeff-Com: -0.316D-01 0.145D+00 0.908D+00
 Coeff:     -0.166D-03 0.192D-03 0.174D-02 0.568D-02-0.228D-02-0.265D-01
 Coeff:     -0.316D-01 0.145D+00 0.908D+00
 Gap=     0.362 Goal=   None    Shift=    0.000
 RMSDP=3.76D-08 MaxDP=1.53D-06 DE=-5.17D-10 OVMax= 4.06D-06

 Cycle  10  Pass 1  IDiag  1:
 E= -323.429798994593     Delta-E=       -0.000000000036 Rises=F Damp=F
 DIIS: error= 1.23D-07 at cycle  10 NSaved=  10.
 NSaved=10 IEnMin=10 EnMin= -323.429798994593     IErMin=10 ErrMin= 1.23D-07
 ErrMax= 1.23D-07  0.00D+00 EMaxC= 1.00D-01 BMatC= 4.20D-12 BMatP= 1.62D-11
 IDIUse=1 WtCom= 1.00D+00 WtEn= 0.00D+00
 Coeff-Com:  0.521D-04-0.876D-03-0.427D-03 0.163D-02 0.868D-02-0.115D-02
 Coeff-Com: -0.455D-01-0.851D-01 0.374D+00 0.749D+00
 Coeff:      0.521D-04-0.876D-03-0.427D-03 0.163D-02 0.868D-02-0.115D-02
 Coeff:     -0.455D-01-0.851D-01 0.374D+00 0.749D+00
 Gap=     0.362 Goal=   None    Shift=    0.000
 RMSDP=1.68D-08 MaxDP=6.76D-07 DE=-3.64D-11 OVMax= 1.54D-06

 Cycle  11  Pass 1  IDiag  1:
[...]
     28 -0.826475D-04  0.000000D+00  0.307691D+00
     29  0.863288D-04  0.000000D+00  0.125311D+00  0.125928D+00
     30  0.000000D+00 -0.113565D-02  0.000000D+00  0.000000D+00  0.261714D-01
     31  0.177047D-03  0.000000D+00 -0.902921D-03  0.745594D-03  0.000000D+00
     32  0.988186D-03  0.000000D+00 -0.757866D-03  0.522857D-03  0.000000D+00
     33  0.000000D+00 -0.664717D-02  0.000000D+00  0.000000D+00 -0.481271D-03
     34 -0.118345D-02  0.000000D+00  0.754102D-03 -0.422896D-03  0.000000D+00
     35 -0.492416D-03  0.000000D+00  0.294913D-03  0.537140D-03  0.000000D+00
     36  0.000000D+00  0.398786D-03  0.000000D+00  0.000000D+00 -0.563515D-02
               31            32            33            34            35 
     31  0.295641D+00
     32 -0.129187D+00  0.129087D+00
     33  0.000000D+00  0.000000D+00  0.280454D-01
     34  0.964620D-03  0.778678D-03  0.000000D+00  0.563626D-01
     35 -0.227016D-03  0.605123D-03  0.000000D+00 -0.483714D-02  0.376513D+00
     36  0.000000D+00  0.000000D+00 -0.194274D-02  0.000000D+00  0.000000D+00
               36 
     36  0.240036D-01
 FormGI is forming the generalized inverse of G from B-inverse, IUseBI=4.
 Leave Link  716 at Fri Aug 27 00:13:40 2021, MaxMem= 17179869184 cpu:        22.3
 (Enter /public3/home/sc51754/softwares/g09e01/l103.exe)

 GradGradGradGradGradGradGradGradGradGradGradGradGradGradGradGradGradGrad
 Berny optimization.
 Red2BG is reusing G-inverse.
 Internal  Forces:  Max     0.000223964 RMS     0.000050642
 Search for a local minimum.
 Step number   1 out of a maximum of    2
 All quantities printed in internal units (Hartrees-Bohrs-Radians)
 Second derivative matrix not updated -- analytic derivatives used.
 ITU=  0
     Eigenvalues ---    0.00804   0.01137   0.01579   0.01829   0.02034
     Eigenvalues ---    0.02328   0.02771   0.03394   0.04957   0.10319
     Eigenvalues ---    0.10850   0.11120   0.12145   0.12711   0.17063
     Eigenvalues ---    0.20033   0.20357   0.23735   0.32527   0.33714
     Eigenvalues ---    0.36675   0.37226   0.37468   0.37773   0.40010
     Eigenvalues ---    0.43637   0.47988   0.55917   0.58606   0.84715
 Angle between quadratic step and forces=  35.51 degrees.
 Linear search not attempted -- first point.
 Iteration  1 RMS(Cart)=  0.00035435 RMS(Int)=  0.00000012
 Iteration  2 RMS(Cart)=  0.00000012 RMS(Int)=  0.00000000
 ITry= 1 IFail=0 DXMaxC= 1.29D-03 DCOld= 1.00D+10 DXMaxT= 3.00D-01 DXLimC= 3.00D+00 Rises=F
 ClnCor:  largest displacement from symmetrization is 3.19D-11 for atom     8.
 Variable       Old X    -DE/DX   Delta X   Delta X   Delta X     New X
                                 (Linear)    (Quad)   (Total)
    R1        2.29735  -0.00007   0.00000  -0.00014  -0.00014   2.29721
    R2        2.62489   0.00010   0.00000   0.00015   0.00015   2.62503
    R3        2.56440   0.00022   0.00000   0.00061   0.00061   2.56501
    R4        1.90460  -0.00002   0.00000  -0.00005  -0.00005   1.90455
    R5        2.73624   0.00001   0.00000   0.00012   0.00012   2.73637
    R6        2.54260   0.00010   0.00000   0.00007   0.00007   2.54266
    R7        2.04223   0.00000   0.00000   0.00003   0.00003   2.04225
    R8        2.53863   0.00004   0.00000  -0.00000  -0.00000   2.53863
    R9        2.04416  -0.00003   0.00000  -0.00012  -0.00012   2.04404
   R10        2.69134  -0.00004   0.00000  -0.00006  -0.00006   2.69128
   R11        2.04801  -0.00003   0.00000  -0.00010  -0.00010   2.04790
   R12        2.03925   0.00000   0.00000   0.00004   0.00004   2.03929
    A1        2.18425  -0.00001   0.00000  -0.00010  -0.00010   2.18415
    A2        1.99785   0.00005   0.00000   0.00057   0.00057   1.99842
    A3        2.10108  -0.00004   0.00000  -0.00047  -0.00047   2.10061
    A4        2.09785   0.00008   0.00000   0.00040   0.00040   2.09826
    A5        2.20645  -0.00006   0.00000  -0.00039  -0.00039   2.20606
    A6        1.97888  -0.00002   0.00000  -0.00002  -0.00002   1.97887
    A7        2.11859   0.00006   0.00000   0.00026   0.00026   2.11885
    A8        2.03013  -0.00012   0.00000  -0.00099  -0.00099   2.02914
    A9        2.13447   0.00006   0.00000   0.00073   0.00073   2.13520
   A10        2.10841  -0.00006   0.00000  -0.00027  -0.00027   2.10815
   A11        2.02409   0.00001   0.00000  -0.00013  -0.00013   2.02396
   A12        2.15068   0.00005   0.00000   0.00040   0.00040   2.15108
   A13        2.12128  -0.00003   0.00000  -0.00035  -0.00035   2.12093
   A14        2.08485   0.00007   0.00000   0.00061   0.00061   2.08546
   A15        2.07706  -0.00003   0.00000  -0.00026  -0.00026   2.07680
   A16        2.05496   0.00008   0.00000   0.00047   0.00047   2.05543
   A17        2.10504  -0.00002   0.00000  -0.00012  -0.00012   2.10492
   A18        2.12319  -0.00005   0.00000  -0.00035  -0.00035   2.12284
    D1        3.14159   0.00000   0.00000  -0.00000   0.00000   3.14159
    D2        0.00000   0.00000   0.00000  -0.00000  -0.00000   0.00000
    D3       -0.00000   0.00000   0.00000  -0.00000   0.00000   0.00000
    D4        3.14159   0.00000   0.00000  -0.00000   0.00000   3.14159
    D5       -0.00000  -0.00000   0.00000   0.00000   0.00000   0.00000
    D6        3.14159  -0.00000   0.00000   0.00000   0.00000   3.14159
    D7        3.14159  -0.00000   0.00000   0.00000   0.00000   3.14159
    D8        0.00000  -0.00000   0.00000   0.00000  -0.00000   0.00000
    D9        3.14159  -0.00000   0.00000  -0.00000   0.00000   3.14159
   D10        0.00000  -0.00000   0.00000   0.00000  -0.00000   0.00000
   D11       -0.00000  -0.00000   0.00000  -0.00000   0.00000   0.00000
   D12        3.14159  -0.00000   0.00000   0.00000   0.00000   3.14159
   D13        0.00000   0.00000   0.00000   0.00000  -0.00000   0.00000
   D14        3.14159   0.00000   0.00000   0.00000   0.00000   3.14159
   D15        3.14159   0.00000   0.00000  -0.00000   0.00000   3.14159
   D16       -0.00000   0.00000   0.00000   0.00000   0.00000   0.00000
   D17        0.00000   0.00000   0.00000  -0.00000  -0.00000   0.00000
   D18        3.14159   0.00000   0.00000  -0.00000   0.00000   3.14159
   D19        3.14159   0.00000   0.00000  -0.00000   0.00000   3.14159
   D20       -0.00000   0.00000   0.00000  -0.00000   0.00000   0.00000
   D21       -0.00000  -0.00000   0.00000   0.00000   0.00000   0.00000
   D22        3.14159  -0.00000   0.00000  -0.00000   0.00000   3.14159
   D23        3.14159  -0.00000   0.00000  -0.00000   0.00000   3.14159
   D24        0.00000  -0.00000   0.00000  -0.00000  -0.00000   0.00000
         Item               Value     Threshold  Converged?
 Maximum Force            0.000224     0.000450     YES
 RMS     Force            0.000051     0.000300     YES
 Maximum Displacement     0.001289     0.001800     YES
 RMS     Displacement     0.000354     0.001200     YES
 Predicted change in Energy=-3.055966D-07
 Optimization completed.
    -- Stationary point found.
                           ----------------------------
                           !   Optimized Parameters   !
                           ! (Angstroms and Degrees)  !
 --------------------------                            --------------------------
 ! Name  Definition              Value          Derivative Info.                !
 --------------------------------------------------------------------------------
 ! R1    R(1,3)                  1.2157         -DE/DX =   -0.0001              !
 ! R2    R(2,3)                  1.389          -DE/DX =    0.0001              !
 ! R3    R(2,5)                  1.357          -DE/DX =    0.0002              !
 ! R4    R(2,8)                  1.0079         -DE/DX =    0.0                 !
 ! R5    R(3,4)                  1.448          -DE/DX =    0.0                 !
 ! R6    R(4,6)                  1.3455         -DE/DX =    0.0001              !
 ! R7    R(4,9)                  1.0807         -DE/DX =    0.0                 !
 ! R8    R(5,7)                  1.3434         -DE/DX =    0.0                 !
 ! R9    R(5,10)                 1.0817         -DE/DX =    0.0                 !
 ! R10   R(6,7)                  1.4242         -DE/DX =    0.0                 !
 ! R11   R(6,11)                 1.0838         -DE/DX =    0.0                 !
 ! R12   R(7,12)                 1.0791         -DE/DX =    0.0                 !
 ! A1    A(3,2,5)              125.1482         -DE/DX =    0.0                 !
 ! A2    A(3,2,8)              114.4686         -DE/DX =    0.0001              !
 ! A3    A(5,2,8)              120.3832         -DE/DX =    0.0                 !
 ! A4    A(1,3,2)              120.1981         -DE/DX =    0.0001              !
 ! A5    A(1,3,4)              126.4202         -DE/DX =   -0.0001              !
 ! A6    A(2,3,4)              113.3816         -DE/DX =    0.0                 !
 ! A7    A(3,4,6)              121.3862         -DE/DX =    0.0001              !
 ! A8    A(3,4,9)              116.3176         -DE/DX =   -0.0001              !
 ! A9    A(6,4,9)              122.2962         -DE/DX =    0.0001              !
 ! A10   A(2,5,7)              120.8031         -DE/DX =   -0.0001              !
 ! A11   A(2,5,10)             115.972          -DE/DX =    0.0                 !
 ! A12   A(7,5,10)             123.2249         -DE/DX =    0.0001              !
 ! A13   A(4,6,7)              121.5404         -DE/DX =    0.0                 !
 ! A14   A(4,6,11)             119.4529         -DE/DX =    0.0001              !
 ! A15   A(7,6,11)             119.0067         -DE/DX =    0.0                 !
 ! A16   A(5,7,6)              117.7406         -DE/DX =    0.0001              !
 ! A17   A(5,7,12)             120.6098         -DE/DX =    0.0                 !
 ! A18   A(6,7,12)             121.6496         -DE/DX =   -0.0001              !
 ! D1    D(5,2,3,1)            180.0            -DE/DX =    0.0                 !
 ! D2    D(5,2,3,4)              0.0            -DE/DX =    0.0                 !
 ! D3    D(8,2,3,1)              0.0            -DE/DX =    0.0                 !
 ! D4    D(8,2,3,4)            180.0            -DE/DX =    0.0                 !
 ! D5    D(3,2,5,7)              0.0            -DE/DX =    0.0                 !
 ! D6    D(3,2,5,10)           180.0            -DE/DX =    0.0                 !
 ! D7    D(8,2,5,7)            180.0            -DE/DX =    0.0                 !
 ! D8    D(8,2,5,10)             0.0            -DE/DX =    0.0                 !
 ! D9    D(1,3,4,6)            180.0            -DE/DX =    0.0                 !
 ! D10   D(1,3,4,9)              0.0            -DE/DX =    0.0                 !
 ! D11   D(2,3,4,6)              0.0            -DE/DX =    0.0                 !
 ! D12   D(2,3,4,9)            180.0            -DE/DX =    0.0                 !
 ! D13   D(3,4,6,7)              0.0            -DE/DX =    0.0                 !
 ! D14   D(3,4,6,11)           180.0            -DE/DX =    0.0                 !
 ! D15   D(9,4,6,7)            180.0            -DE/DX =    0.0                 !
 ! D16   D(9,4,6,11)             0.0            -DE/DX =    0.0                 !
 ! D17   D(2,5,7,6)              0.0            -DE/DX =    0.0                 !
 ! D18   D(2,5,7,12)           180.0            -DE/DX =    0.0                 !
 ! D19   D(10,5,7,6)           180.0            -DE/DX =    0.0                 !
 ! D20   D(10,5,7,12)            0.0            -DE/DX =    0.0                 !
 ! D21   D(4,6,7,5)              0.0            -DE/DX =    0.0                 !
 ! D22   D(4,6,7,12)           180.0            -DE/DX =    0.0                 !
 ! D23   D(11,6,7,5)           180.0            -DE/DX =    0.0                 !
 ! D24   D(11,6,7,12)            0.0            -DE/DX =    0.0                 !
 --------------------------------------------------------------------------------
 GradGradGradGradGradGradGradGradGradGradGradGradGradGradGradGradGradGrad

 Leave Link  103 at Fri Aug 27 00:13:40 2021, MaxMem= 17179869184 cpu:        17.3
 (Enter /public3/home/sc51754/softwares/g09e01/l9999.exe)
 1\1\GINC-S2515\Freq\RLC-wPBE\Gen\C5H5N1O1\SC51754\27-Aug-2021\0\\#P Ge
 om=AllCheck Guess=TCheck SCRF=Check GenChk RLC-wPBE/ChkBas Freq\\PY_LC
 -wPBE_PC2_OPT_FREQ\\0,1\O,-0.1310815731,2.2629652462,0.\N,-1.130519367
 7,0.2363385368,0.\C,-0.0073415929,1.0535764116,0.\C,1.239256298,0.3169
 784588,0.\C,-1.1093962083,-1.1205176704,0.\C,1.2582273956,-1.028371790
 8,0.\C,0.0550512757,-1.7904068656,0.\H,-2.0077983244,0.7325043508,0.\H
 ,2.1445356131,0.9072154673,0.\H,-2.0743810773,-1.6093179743,0.\H,2.209
 3409438,-1.5479055306,0.\H,0.0682096176,-2.8694506398,0.\\Version=EM64
 L-G09RevE.01\State=1-A'\HF=-323.4298351\RMSD=1.404e-09\RMSF=8.548e-05\
 ZeroPoint=0.0953964\Thermal=0.1005972\Dipole=-0.4693694,-1.667126,0.\D
 ipoleDeriv=-0.4590159,0.248181,0.,0.0458773,-1.8413069,0.,0.,0.,-0.444
 8432,-0.3894923,-0.5769533,0.,0.4160017,-0.8758876,0.,0.,0.,-0.2450536
 ,0.4827315,-0.1510996,0.,-0.0193665,2.3092563,0.,0.,0.,0.3055392,-0.07
 72895,0.5361143,0.,-0.0699895,-0.6625207,0.,0.,0.,-0.1887734,0.3554879
 ,-0.0336266,0.,-0.6560316,0.4625865,0.,0.,0.,-0.0051442,0.4177298,0.26
 0042,0.,0.2148789,0.5075123,0.,0.,0.,-0.0689747,-0.6447176,-0.2175317,
 0.,0.1256227,-0.1689523,0.,0.,0.,-0.2271698,0.25658,-0.0366993,0.,-0.0
 309949,0.1486412,0.,0.,0.,0.2847162,0.0166982,-0.0264401,0.,-0.0404896
 ,0.0433398,0.,0.,0.,0.1515264,0.0020959,-0.0436575,0.,-0.0289297,0.049
 0881,0.,0.,0.,0.1436172,-0.0312793,0.0615201,0.,0.0594429,0.0580777,0.
 ,0.,0.,0.1264152,0.0704712,-0.0198493,0.,-0.0160217,-0.0298344,0.,0.,0
 .,0.1681446\Polar=69.3265824,-0.3611498,86.3197357,0.,0.,36.7122516\PG
 =CS [SG(C5H5N1O1)]\NImag=0\\0.10064549,-0.06264483,0.81050508,0.,0.,0.
 03528513,0.01346939,-0.04633558,0.,0.78448640,-0.07269882,-0.07951433,
 0.,-0.10089329,0.79686911,0.,0.,0.02096872,0.,0.,0.07857197,-0.1132323
 5,0.07715236,0.,-0.24003732,0.00923474,0.,0.59797235,0.07157305,-0.674
 84367,0.,-0.03960871,-0.15282065,0.,-0.08817832,0.97326618,0.,0.,-0.07
 841176,0.,0.,-0.06436228,0.,0.,0.21140193,0.00337747,0.02959640,0.,-0.
 04044045,-0.01550924,0.,-0.23192179,0.05294133,0.,0.66934551,0.0543410
 0,-0.05584572,0.,-0.00972195,0.05270595,0.,0.02637246,-0.12625945,0.,0
 .07072895,0.83748625,0.,0.,0.02377306,0.,0.,0.00810878,0.,0.,-0.083523
 71,0.,0.,0.12223741,-0.01072658,-0.00134831,0.,-0.14875011,-0.02669851
 ,0.,0.03993910,-0.02623649,0.,-0.01567662,0.02380898,0.,0.87815267,0.0
 1639791,-0.00206607,0.,0.03029251,-0.34737985,0.,-0.08689201,-0.028204
 46,0.,0.02370003,-0.04143032,0.,-0.02977888,0.70850654,0.,0.,0.0053571
 0,0.,0.,-0.04810660,0.,0.,-0.00278170,0.,0.,-0.00033472,0.,0.,0.148834
 44,-0.01525176,0.01114150,0.,-0.00592477,-0.03969865,0.,0.04669445,0.0
 2899565,0.,-0.14063139,0.03427005,0.,-0.06181882,0.02302294,0.,0.69405
 646,-0.00751250,0.01471337,0.,-0.00307714,-0.04441698,0.,0.05250455,-0
 .02862621,0.,-0.01837286,-0.48455705,0.,-0.02161864,0.06048575,0.,-0.0
 5212840,0.80275931,0.,0.,0.00340205,0.,0.,-0.00661551,0.,0.,0.00142847
 ,0.,0.,-0.05909263,0.,0.,0.00910155,0.,0.,0.14967339,0.01284365,-0.010
 83971,0.,0.01149073,0.07677680,0.,-0.05987397,0.00272666,0.,0.03121212
 ,-0.05979777,0.,-0.39160477,0.11359814,0.,-0.24184867,-0.04729086,0.,0
 .72043578,-0.00273382,-0.00668728,0.,0.03571912,-0.04612826,0.,0.01137
 351,0.00884183,0.,-0.03195941,-0.02546342,0.,0.16761843,-0.20775900,0.
 ,-0.10402295,-0.17379270,0.,-0.07695489,0.79532840,0.,0.,0.00007790,0.
 ,0.,0.01387049,0.,0.,-0.00901442,0.,0.,0.00866833,0.,0.,-0.06912600,0.
 ,0.,-0.06502470,0.,0.,0.12248636,0.00512110,0.00135796,0.,-0.37076597,
 0.16225998,0.,-0.02396103,0.01824709,0.,-0.00409502,-0.00294325,0.,0.0
 0718565,0.00012130,0.,-0.00143718,-0.00287137,0.,0.00468087,-0.0025930
 7,0.,0.38300299,0.00506232,-0.00271997,0.,0.16173144,-0.16044682,0.,-0
 .01894892,0.02195943,0.,-0.00271856,-0.00354853,0.,0.03241675,-0.01229
 426,0.,0.00008810,0.00077331,0.,-0.00372145,-0.00558161,0.,-0.17371032
 ,0.16087900,0.,0.,-0.00497649,0.,0.,-0.01720566,0.,0.,0.00403268,0.,0.
 ,0.00433448,0.,0.,-0.00528728,0.,0.,-0.00050547,0.,0.,0.00484505,0.,0.
 ,0.01666242,0.00318732,0.00144952,0.,-0.00514172,0.00249588,0.,-0.0163
 8274,-0.02040765,0.,-0.27097664,-0.13396257,0.,-0.00011064,0.00248967,
 0.,0.00638443,0.00345666,0.,0.00221774,0.00089527,0.,-0.00094061,-0.00
 092039,0.,0.28072158,-0.00204446,0.00038276,0.,0.00376607,-0.00114046,
 0.,0.01457416,0.01185422,0.,-0.13572831,-0.14295406,0.,0.00066028,-0.0
 0111149,0.,-0.02741477,-0.01132774,0.,0.00163200,-0.00467152,0.,0.0007
 6830,0.00062228,0.,0.14487578,0.14776390,0.,0.,-0.00227850,0.,0.,0.004
 06360,0.,0.,0.00344208,0.,0.,-0.03583251,0.,0.,-0.00068673,0.,0.,0.004
 08246,0.,0.,0.01005533,0.,0.,-0.00048025,0.,0.,0.02501856,-0.00012155,
 -0.00006974,0.,0.00555730,0.00267779,0.,0.00188130,0.00152622,0.,0.000
 45837,0.00073435,0.,-0.29788699,-0.11799106,0.,-0.00367048,0.00362633,
 0.,-0.01464186,-0.01480578,0.,0.00089098,-0.00046340,0.,-0.00000886,-0
 .00008265,0.,0.30769061,-0.00162882,-0.00267163,0.,-0.03504272,-0.0187
 5165,0.,0.00588238,-0.00101884,0.,-0.00001584,-0.00005033,0.,-0.111443
 95,-0.11700265,0.,0.00300824,-0.00153210,0.,0.01407864,0.01324001,0.,-
 0.00036745,0.00071250,0.,-0.00010406,0.00008633,0.,0.12531089,0.125928
 36,0.,0.,-0.00021591,0.,0.,0.00321893,0.,0.,0.00504984,0.,0.,-0.000239
 58,0.,0.,-0.04144426,0.,0.,0.00864407,0.,0.,0.00844275,0.,0.,-0.002375
 19,0.,0.,-0.00113565,0.,0.,0.02617143,-0.00002433,0.00056002,0.,0.0011
 3109,-0.00037939,0.,0.00099465,-0.00146627,0.,0.00398018,-0.00185684,0
 .,-0.00373486,-0.00394977,0.,-0.28248832,0.12078068,0.,-0.01645762,0.0
 1477914,0.,0.00003080,0.00002401,0.,0.00086611,0.00017705,0.,-0.000902
 92,0.00074559,0.,0.29564058,0.00178776,-0.00125835,0.,0.00034671,-0.00
 039742,0.,-0.00262276,-0.00459477,0.,0.02991104,-0.01035247,0.,-0.0036
 2394,-0.00142890,0.,0.11935893,-0.12536290,0.,-0.01553786,0.01216649,0
 .,0.00000607,0.00002552,0.,-0.00045953,0.00098819,0.,-0.00075787,0.000
 52286,0.,-0.12918721,0.12908664,0.,0.,-0.00252431,0.,0.,-0.00086733,0.
 ,0.,0.01303197,0.,0.,0.00835422,0.,0.,0.00414696,0.,0.,-0.04541176,0.,
 0.,0.00497723,0.,0.,-0.00068115,0.,0.,-0.00664717,0.,0.,-0.00048127,0.
 ,0.,0.02804535,0.00071214,-0.00001958,0.,-0.00507456,0.00243273,0.,-0.
 00207266,-0.00011257,0.,-0.00463174,-0.00197339,0.,0.00503197,0.028989
 23,0.,0.00593604,-0.02749646,0.,-0.05845401,0.00268443,0.,0.00028743,0
 .00116042,0.,0.00018403,-0.00118345,0.,0.00075410,-0.00042290,0.,0.000
 96462,0.00077868,0.,0.05636264,0.00010122,0.00000581,0.,0.00282355,0.0
 0142137,0.,-0.00045214,0.00044638,0.,-0.00257351,0.00026915,0.,-0.0037
 5571,-0.01031529,0.,0.00337936,-0.00911607,0.,0.00533031,-0.35949294,0
 .,-0.00027525,-0.00038086,0.,0.00019141,-0.00049242,0.,0.00029491,0.00
 053714,0.,-0.00022702,0.00060512,0.,-0.00483714,0.37651259,0.,0.,-0.00
 045700,0.,0.,0.00835489,0.,0.,-0.00029310,0.,0.,0.00354687,0.,0.,0.000
 32724,0.,0.,0.00031807,0.,0.,-0.03025831,0.,0.,0.00163687,0.,0.,0.0003
 9879,0.,0.,-0.00563515,0.,0.,-0.00194274,0.,0.,0.02400358\\-0.00006008
 ,0.00006776,0.,0.00002528,-0.00020574,0.,-0.00001938,-0.00018076,0.,0.
 00001476,0.00001528,0.,0.00013439,0.00031568,0.,-0.00008283,0.00013184
 ,0.,-0.00007814,-0.00011819,0.,0.00001331,0.00005596,0.,0.00004935,-0.
 00007754,0.,-0.00002380,-0.00003051,0.,0.00004675,0.00002284,0.,-0.000
 01962,0.00000339,0.\\\@


 IF YOU WISH TO UNDERSTAND THE FRAGRANCE OF THE ROSE, 
 OR THE TENACITY OF THE OAK; 
 IF YOU ARE NOT SATISFIED UNTIL YOU KNOW THE SECRET PATHS 
 BY WHICH THE SUNSHINE AND THE AIR ACHIEVE THESE WONDERS; 
 IF YOU WISH TO SEE THE PATTERN WHICH UNDERLIES ONE LARGE FIELD OF 
 HUMAN EXPERIENCE AND HUMAN MEASUREMENT, THEN TAKE UP CHEMISTRY.

                                         -- C. A. COULSON, 1973.
 Job cpu time:       0 days  0 hours 49 minutes 24.4 seconds.
 File lengths (MBytes):  RWF=     80 Int=      0 D2E=      0 Chk=      7 Scr=      1
 Normal termination of Gaussian 09 at Fri Aug 27 00:13:40 2021.
