 Entering Gaussian System, Link 0=g09
 AtFile(1): pc-2.gbs
            -H     0
            S    4   1.00
                  0.754230D+02           0.240650D-02
                  0.113500D+02           0.184870D-01
                  0.259930D+01           0.897420D-01
                  0.735130D+00           0.281110D+00
            S    1   1.00
                  0.231670D+00           0.100000D+01
            S    1   1.00
                  0.741470D-01           0.100000D+01
            P    1   1.00
                  0.160000D+01           0.100000D+01
            P    1   1.00
                  0.450000D+00           0.100000D+01
            D    1   1.00
                  0.125000D+01           0.100000D+01
            ****
            -C     0
            S    7   1.00
                  0.785710D+04           0.568250D-03
                  0.117870D+04           0.439150D-02
                  0.268320D+03           0.225040D-01
                  0.759480D+02           0.866530D-01
                  0.245590D+02           0.244050D+00
                  0.862120D+01           0.441480D+00
                  0.312780D+01           0.353320D+00
            S    7   1.00
                  0.117870D+04          -0.594920D-06
                  0.268320D+03          -0.627480D-04
                  0.759480D+02          -0.757730D-03
                  0.245590D+02          -0.733080D-02
                  0.862120D+01          -0.389320D-01
                  0.312780D+01          -0.889080D-01
                  0.822020D+00           0.216890D+00
            S    1   1.00
                  0.330170D+00           0.100000D+01
            S    1   1.00
                  0.114630D+00           0.100000D+01
            P    4   1.00
                  0.337750D+02           0.602940D-02
                  0.767660D+01           0.432280D-01
                  0.223570D+01           0.163010D+00
                  0.764470D+00           0.365040D+00
            P    1   1.00
                  0.262320D+00           0.100000D+01
            P    1   1.00
                  0.846380D-01           0.100000D+01
            D    1   1.00
                  0.140000D+01           0.100000D+01
            D    1   1.00
                  0.450000D+00           0.100000D+01
            F    1   1.00
                  0.950000D+00           0.100000D+01
            ****
            -N     0
            S    7   1.00
                  0.111010D+05           0.545700D-03
                  0.166530D+04           0.421810D-02
                  0.379080D+03           0.216450D-01
                  0.107300D+03           0.837760D-01
                  0.347470D+02           0.238810D+00
                  0.122490D+02           0.439940D+00
                  0.447430D+01           0.363640D+00
            S    7   1.00
                  0.166530D+04          -0.150060D-05
                  0.379080D+03          -0.587530D-04
                  0.107300D+03          -0.774530D-03
                  0.347470D+02          -0.721610D-02
                  0.122490D+02          -0.393380D-01
                  0.447430D+01          -0.906110D-01
                  0.124040D+01           0.198820D+00
            S    1   1.00
                  0.487430D+00           0.100000D+01
            S    1   1.00
                  0.164840D+00           0.100000D+01
            P    4   1.00
                  0.479340D+02           0.617060D-02
                  0.109990D+02           0.442600D-01
                  0.324720D+01           0.168250D+00
                  0.111140D+01           0.368480D+00
            P    1   1.00
                  0.379880D+00           0.100000D+01
            P    1   1.00
                  0.120680D+00           0.100000D+01
            D    1   1.00
                  0.180000D+01           0.100000D+01
            D    1   1.00
                  0.550000D+00           0.100000D+01
            F    1   1.00
                  0.102000D+01           0.100000D+01
            ****
            -O     0
            S    7   1.00
                  0.147820D+05           0.535190D-03
                  0.221730D+04           0.413750D-02
                  0.504740D+03           0.212450D-01
                  0.142870D+03           0.824530D-01
                  0.463000D+02           0.236710D+00
                  0.163370D+02           0.440390D+00
                  0.598280D+01           0.364650D+00
            S    7   1.00
                  0.221730D+04          -0.192750D-05
                  0.504740D+03          -0.579640D-04
                  0.142870D+03          -0.794940D-03
                  0.463000D+02          -0.731250D-02
                  0.163370D+02          -0.405740D-01
                  0.598280D+01          -0.915940D-01
                  0.167180D+01           0.209400D+00
            S    1   1.00
                  0.646620D+00           0.100000D+01
            S    1   1.00
                  0.216690D+00           0.100000D+01
            P    4   1.00
                  0.604240D+02           0.689490D-02
                  0.139350D+02           0.490050D-01
                  0.415310D+01           0.182550D+00
                  0.141580D+01           0.376330D+00
            P    1   1.00
                  0.475490D+00           0.100000D+01
            P    1   1.00
                  0.145290D+00           0.100000D+01
            D    1   1.00
                  0.220000D+01           0.100000D+01
            D    1   1.00
                  0.650000D+00           0.100000D+01
            F    1   1.00
                  0.110000D+01           0.100000D+01
            ****
 Initial command:
 /public3/home/sc51754/softwares/g09e01/l1.exe "./Gau-33061.inp" -scrdir="./"
 Entering Link 1 = /public3/home/sc51754/softwares/g09e01/l1.exe PID=     33064.
  
 Copyright (c) 1988,1990,1992,1993,1995,1998,2003,2009,2015,
            Gaussian, Inc.  All Rights Reserved.
  
 This is part of the Gaussian(R) 09 program.  It is based on
 the Gaussian(R) 03 system (copyright 2003, Gaussian, Inc.),
 the Gaussian(R) 98 system (copyright 1998, Gaussian, Inc.),
 the Gaussian(R) 94 system (copyright 1995, Gaussian, Inc.),
 the Gaussian 92(TM) system (copyright 1992, Gaussian, Inc.),
 the Gaussian 90(TM) system (copyright 1990, Gaussian, Inc.),
 the Gaussian 88(TM) system (copyright 1988, Gaussian, Inc.),
 the Gaussian 86(TM) system (copyright 1986, Carnegie Mellon
 University), and the Gaussian 82(TM) system (copyright 1983,
 Carnegie Mellon University). Gaussian is a federally registered
 trademark of Gaussian, Inc.
  
 This software contains proprietary and confidential information,
 including trade secrets, belonging to Gaussian, Inc.
  
 This software is provided under written license and may be
 used, copied, transmitted, or stored only in accord with that
 written license.
  
 The following legend is applicable only to US Government
 contracts under FAR:
  
                    RESTRICTED RIGHTS LEGEND
  
 Use, reproduction and disclosure by the US Government is
 subject to restrictions as set forth in subparagraphs (a)
 and (c) of the Commercial Computer Software - Restricted
 Rights clause in FAR 52.227-19.
  
 Gaussian, Inc.
 340 Quinnipiac St., Bldg. 40, Wallingford CT 06492
  
  
 ---------------------------------------------------------------
 Warning -- This program may not be used in any manner that
 competes with the business of Gaussian, Inc. or will provide
 assistance to any competitor of Gaussian, Inc.  The licensee
 of this program is prohibited from giving any competitor of
 Gaussian, Inc. access to this program.  By using this program,
 the user acknowledges that Gaussian, Inc. is engaged in the
 business of creating and licensing software in the field of
 computational chemistry and represents and warrants to the
 licensee that it is not a competitor of Gaussian, Inc. and that
 it will not use this program in any manner prohibited above.
 ---------------------------------------------------------------
  

 Cite this work as:
 Gaussian 09, Revision E.01,
 M. J. Frisch, G. W. Trucks, H. B. Schlegel, G. E. Scuseria, 
 M. A. Robb, J. R. Cheeseman, G. Scalmani, V. Barone, B. Mennucci, 
 G. A. Petersson, H. Nakatsuji, M. Caricato, X. Li, H. P. Hratchian, 
 A. F. Izmaylov, J. Bloino, G. Zheng, J. L. Sonnenberg, M. Hada, 
 M. Ehara, K. Toyota, R. Fukuda, J. Hasegawa, M. Ishida, T. Nakajima, 
 Y. Honda, O. Kitao, H. Nakai, T. Vreven, J. A. Montgomery, Jr., 
 J. E. Peralta, F. Ogliaro, M. Bearpark, J. J. Heyd, E. Brothers, 
 K. N. Kudin, V. N. Staroverov, T. Keith, R. Kobayashi, J. Normand, 
 K. Raghavachari, A. Rendell, J. C. Burant, S. S. Iyengar, J. Tomasi, 
 M. Cossi, N. Rega, J. M. Millam, M. Klene, J. E. Knox, J. B. Cross, 
 V. Bakken, C. Adamo, J. Jaramillo, R. Gomperts, R. E. Stratmann, 
 O. Yazyev, A. J. Austin, R. Cammi, C. Pomelli, J. W. Ochterski, 
 R. L. Martin, K. Morokuma, V. G. Zakrzewski, G. A. Voth, 
 P. Salvador, J. J. Dannenberg, S. Dapprich, A. D. Daniels, 
 O. Farkas, J. B. Foresman, J. V. Ortiz, J. Cioslowski, 
 and D. J. Fox, Gaussian, Inc., Wallingford CT, 2013.
 
 ******************************************
 Gaussian 09:  EM64L-G09RevE.01 30-Nov-2015
                28-Aug-2021 
 ******************************************
 %nprocshared=64
 Will use up to   64 processors via shared memory.
 %mem=128GB
 %chk=TST_GAS_LC-wPBE.chk
 --------------------------------------------------
 #p opt=(calcfc,qst3,MaxCycle=200) freq LC-wPBE/gen
 --------------------------------------------------
 1/5=1,6=200,10=4,14=-1,18=20,26=3,27=203,38=1/1,3;
 2/9=110,12=2,17=6,18=5,40=1/2;
 3/5=7,11=2,16=1,25=1,30=1,71=2,74=-41,140=1/1,2,3;
 4//1;
 5/5=2,38=5/2;
 8/6=4,10=90,11=11/1;
 11/6=1,8=1,9=11,15=111,16=1/1,2,10;
 10/6=1,13=1/2;
 6/7=2,8=2,9=2,10=2,28=1/1;
 7/10=1,18=20,25=1/1,2,3,16;
 1/5=1,6=200,10=4,14=-1,18=20,26=3,27=203/3(2);
 2/9=110/2;
 99//99;
 2/9=110/2;
 3/5=7,6=1,11=2,16=1,25=1,30=1,71=1,74=-41,82=7/1,2,3;
 4/5=5,16=3,69=1/1;
 5/5=2,38=5/2;
 7//1,2,3,16;
 1/5=1,6=200,14=-1,18=20,26=3,27=203/3(-5);
 2/9=110/2;
 6/7=2,8=2,9=2,10=2,19=2,28=1/1;
 99/9=1/99;
 Leave Link    1 at Sat Aug 28 00:50:25 2021, MaxMem= 17179869184 cpu:         8.6
 (Enter /public3/home/sc51754/softwares/g09e01/l101.exe)
 -----------------------
 HY_LC-wPBE_PC2_OPT_FREQ
 -----------------------
 Symbolic Z-matrix:
 Charge =  0 Multiplicity = 1
 O                     0.00243   2.23962   0. 
 N                    -1.16778   0.29424   0. 
 C                     0.        0.89563   0. 
 C                     1.21832   0.22499   0. 
 C                    -1.18023  -1.03593   0. 
 C                     1.18341  -1.14606   0. 
 C                    -0.04001  -1.80261   0. 
 H                    -0.92119   2.51425   0. 
 H                     2.14243   0.78506   0. 
 H                    -2.16063  -1.50025   0. 
 H                     2.10817  -1.71004   0. 
 H                    -0.10272  -2.88174   0. 
 
 -----------------------
 PY_LC-wPBE_PC2_OPT_FREQ
 -----------------------
 Symbolic Z-matrix:
 Charge =  0 Multiplicity = 1
 O                    -0.11549   2.26463   0. 
 N                    -1.12872   0.24487   0. 
 C                     0.        1.05443   0. 
 C                     1.24155   0.30935   0. 
 C                    -1.11685  -1.1121    0. 
 C                     1.25134  -1.0361    0. 
 C                     0.043    -1.78992   0. 
 H                    -2.0026    0.747     0. 
 H                     2.15083   0.8934    0. 
 H                    -2.08515  -1.59431   0. 
 H                     2.19889  -1.56211   0. 
 H                     0.0488   -2.86902   0. 
 
 ---------------
 TST_GAS_LC-wPBE
 ---------------
 Symbolic Z-matrix:
 Charge =  0 Multiplicity = 1
 O                     0.22792   2.57635   0. 
 N                    -0.94228   0.63097   0. 
 C                     0.2255    1.23236   0. 
 C                     1.44381   0.56171   0. 
 C                    -0.95474  -0.6992    0. 
 C                     1.40891  -0.80933   0. 
 C                     0.18549  -1.46588   0. 
 H                    -1.14669   2.17752   0. 
 H                     2.36793   1.12179   0. 
 H                    -1.93513  -1.16352   0. 
 H                     2.33367  -1.37331   0. 
 H                     0.12277  -2.54501   0. 
 
 NAtoms=     12 NQM=       12 NQMF=       0 NMMI=      0 NMMIF=      0
                NMic=       0 NMicF=      0.
                    Isotopes and Nuclear Properties:
 (Nuclear quadrupole moments (NQMom) in fm**2, nuclear magnetic moments (NMagM)
  in nuclear magnetons)

  Atom         1           2           3           4           5           6           7           8           9          10
 IAtWgt=          16          14          12          12          12          12          12           1           1           1
 AtmWgt=  15.9949146  14.0030740  12.0000000  12.0000000  12.0000000  12.0000000  12.0000000   1.0078250   1.0078250   1.0078250
 NucSpn=           0           2           0           0           0           0           0           1           1           1
 AtZEff=   0.0000000   0.0000000   0.0000000   0.0000000   0.0000000   0.0000000   0.0000000   0.0000000   0.0000000   0.0000000
 NQMom=    0.0000000   2.0440000   0.0000000   0.0000000   0.0000000   0.0000000   0.0000000   0.0000000   0.0000000   0.0000000
 NMagM=    0.0000000   0.4037610   0.0000000   0.0000000   0.0000000   0.0000000   0.0000000   2.7928460   2.7928460   2.7928460
 AtZNuc=   8.0000000   7.0000000   6.0000000   6.0000000   6.0000000   6.0000000   6.0000000   1.0000000   1.0000000   1.0000000

  Atom        11          12
 IAtWgt=           1           1
 AtmWgt=   1.0078250   1.0078250
 NucSpn=           1           1
 AtZEff=   0.0000000   0.0000000
 NQMom=    0.0000000   0.0000000
 NMagM=    2.7928460   2.7928460
 AtZNuc=   1.0000000   1.0000000
 Leave Link  101 at Sat Aug 28 00:50:29 2021, MaxMem= 17179869184 cpu:        33.2
 (Enter /public3/home/sc51754/softwares/g09e01/l103.exe)

 GradGradGradGradGradGradGradGradGradGradGradGradGradGradGradGradGradGrad
 Berny optimization.
 Initialization pass.
                           ----------------------------
                           !    Initial Parameters    !
                           ! (Angstroms and Degrees)  !
 --------------------------                            --------------------------
 ! Name  Definition        TS        Reactant  Product Derivative Info.         !
 --------------------------------------------------------------------------------
 ! R1    R(1,3)             1.344     1.344     1.2157 calculate D2E/DX2 analyti!
 ! R2    R(1,8)             1.4313    0.9636    2.4216 calculate D2E/DX2 analyti!
 ! R3    R(2,3)             1.3135    1.3135    1.389  calculate D2E/DX2 analyti!
 ! R4    R(2,5)             1.3302    1.3302    1.357  calculate D2E/DX2 analyti!
 ! R5    R(2,8)             1.56      2.2337    1.0079 calculate D2E/DX2 analyti!
 ! R6    R(3,4)             1.3907    1.3907    1.448  calculate D2E/DX2 analyti!
 ! R7    R(4,6)             1.3715    1.3715    1.3455 calculate D2E/DX2 analyti!
 ! R8    R(4,9)             1.0806    1.0806    1.0807 calculate D2E/DX2 analyti!
 ! R9    R(5,7)             1.374     1.374     1.3434 calculate D2E/DX2 analyti!
 ! R10   R(5,10)            1.0848    1.0848    1.0817 calculate D2E/DX2 analyti!
 ! R11   R(6,7)             1.3885    1.3885    1.4242 calculate D2E/DX2 analyti!
 ! R12   R(6,11)            1.0832    1.0832    1.0838 calculate D2E/DX2 analyti!
 ! R13   R(7,12)            1.081     1.081     1.0791 calculate D2E/DX2 analyti!
 ! A1    A(3,1,8)          73.717   106.4559   56.6447 calculate D2E/DX2 analyti!
 ! A2    A(3,2,5)         117.7846  117.7846  125.1482 calculate D2E/DX2 analyti!
 ! A3    A(3,2,8)          70.2813   56.414   114.4686 calculate D2E/DX2 analyti!
 ! A4    A(5,2,8)         171.9342  174.1986  120.3833 calculate D2E/DX2 analyti!
 ! A5    A(1,3,2)         117.3514  117.3514  120.1981 calculate D2E/DX2 analyti!
 ! A6    A(1,3,4)         118.7278  118.7278  126.4202 calculate D2E/DX2 analyti!
 ! A7    A(2,3,4)         123.9207  123.9207  113.3816 calculate D2E/DX2 analyti!
 ! A8    A(3,4,6)         117.3729  117.3729  121.3862 calculate D2E/DX2 analyti!
 ! A9    A(3,4,9)         119.95    119.95    116.3176 calculate D2E/DX2 analyti!
 ! A10   A(6,4,9)         122.6772  122.6772  122.2962 calculate D2E/DX2 analyti!
 ! A11   A(2,5,7)         123.38    123.38    120.803  calculate D2E/DX2 analyti!
 ! A12   A(2,5,10)        115.879   115.879   115.972  calculate D2E/DX2 analyti!
 ! A13   A(7,5,10)        120.741   120.741   123.225  calculate D2E/DX2 analyti!
 ! A14   A(4,6,7)         119.6788  119.6788  121.5403 calculate D2E/DX2 analyti!
 ! A15   A(4,6,11)        119.919   119.919   119.4529 calculate D2E/DX2 analyti!
 ! A16   A(7,6,11)        120.4022  120.4022  119.0067 calculate D2E/DX2 analyti!
 ! A17   A(5,7,6)         117.863   117.863   117.7406 calculate D2E/DX2 analyti!
 ! A18   A(5,7,12)        120.5906  120.5906  120.6098 calculate D2E/DX2 analyti!
 ! A19   A(6,7,12)        121.5463  121.5463  121.6496 calculate D2E/DX2 analyti!
 ! D1    D(8,1,3,2)         0.0       0.0       0.0    calculate D2E/DX2 analyti!
 ! D2    D(8,1,3,4)       180.0     180.0     180.0    calculate D2E/DX2 analyti!
 ! D3    D(5,2,3,1)       180.0     180.0     180.0    calculate D2E/DX2 analyti!
 ! D4    D(5,2,3,4)         0.0       0.0       0.0    calculate D2E/DX2 analyti!
 ! D5    D(8,2,3,1)         0.0       0.0       0.0    calculate D2E/DX2 analyti!
 ! D6    D(8,2,3,4)       180.0     180.0     180.0    calculate D2E/DX2 analyti!
 ! D7    D(3,2,5,7)         0.0       0.0       0.0    calculate D2E/DX2 analyti!
 ! D8    D(3,2,5,10)      180.0     180.0     180.0    calculate D2E/DX2 analyti!
 ! D9    D(8,2,5,7)       180.0       0.0     180.0    calculate D2E/DX2 analyti!
 ! D10   D(8,2,5,10)        0.0     180.0       0.0    calculate D2E/DX2 analyti!
 ! D11   D(1,3,4,6)       180.0     180.0     180.0    calculate D2E/DX2 analyti!
 ! D12   D(1,3,4,9)         0.0       0.0       0.0    calculate D2E/DX2 analyti!
 ! D13   D(2,3,4,6)         0.0       0.0       0.0    calculate D2E/DX2 analyti!
 ! D14   D(2,3,4,9)       180.0     180.0     180.0    calculate D2E/DX2 analyti!
 ! D15   D(3,4,6,7)         0.0       0.0       0.0    calculate D2E/DX2 analyti!
 ! D16   D(3,4,6,11)      180.0     180.0     180.0    calculate D2E/DX2 analyti!
 ! D17   D(9,4,6,7)       180.0     180.0     180.0    calculate D2E/DX2 analyti!
 ! D18   D(9,4,6,11)        0.0       0.0       0.0    calculate D2E/DX2 analyti!
 ! D19   D(2,5,7,6)         0.0       0.0       0.0    calculate D2E/DX2 analyti!
 ! D20   D(2,5,7,12)      180.0     180.0     180.0    calculate D2E/DX2 analyti!
 ! D21   D(10,5,7,6)      180.0     180.0     180.0    calculate D2E/DX2 analyti!
 ! D22   D(10,5,7,12)       0.0       0.0       0.0    calculate D2E/DX2 analyti!
 ! D23   D(4,6,7,5)         0.0       0.0       0.0    calculate D2E/DX2 analyti!
 ! D24   D(4,6,7,12)      180.0     180.0     180.0    calculate D2E/DX2 analyti!
 ! D25   D(11,6,7,5)      180.0     180.0     180.0    calculate D2E/DX2 analyti!
 ! D26   D(11,6,7,12)       0.0       0.0       0.0    calculate D2E/DX2 analyti!
 --------------------------------------------------------------------------------
 Trust Radius=3.00D-01 FncErr=1.00D-07 GrdErr=1.00D-06
 Number of steps in this run=    100 maximum allowed number of steps=    100.
 Search for a saddle point of order  1.
 GradGradGradGradGradGradGradGradGradGradGradGradGradGradGradGradGradGrad

 Leave Link  103 at Sat Aug 28 00:50:29 2021, MaxMem= 17179869184 cpu:         1.7
 (Enter /public3/home/sc51754/softwares/g09e01/l202.exe)
                          Input orientation:                          
 ---------------------------------------------------------------------
 Center     Atomic      Atomic             Coordinates (Angstroms)
 Number     Number       Type             X           Y           Z
 ---------------------------------------------------------------------
      1          8           0        0.227924    2.576347    0.000000
      2          7           0       -0.942279    0.630970    0.000000
      3          6           0        0.225496    1.232360    0.000000
      4          6           0        1.443815    0.561715    0.000000
      5          6           0       -0.954738   -0.699201    0.000000
      6          6           0        1.408907   -0.809332    0.000000
      7          6           0        0.185488   -1.465882    0.000000
      8          1           0       -1.146688    2.177520    0.000000
      9          1           0        2.367930    1.121791    0.000000
     10          1           0       -1.935130   -1.163518    0.000000
     11          1           0        2.333669   -1.373310    0.000000
     12          1           0        0.122774   -2.545012    0.000000
 ---------------------------------------------------------------------
                    Distance matrix (angstroms):
                    1          2          3          4          5
     1  O    0.000000
     2  N    2.270213   0.000000
     3  C    1.343989   1.313533   0.000000
     4  C    2.353111   2.387099   1.390707   0.000000
     5  C    3.482514   1.330229   2.263599   2.709791   0.000000
     6  C    3.585742   2.757271   2.359866   1.371491   2.366209
     7  C    4.042452   2.380892   2.698539   2.386323   1.374014
     8  H    1.431300   1.560000   1.666198   3.053118   2.883118
     9  H    2.587539   3.346399   2.145285   1.080589   3.788949
    10  H    4.320346   2.050839   3.226226   3.793903   1.084785
    11  H    4.475930   3.840439   3.351702   2.129827   3.356791
    12  H    5.122438   3.349806   3.778768   3.375930   2.137300
                    6          7          8          9         10
     6  C    0.000000
     7  C    1.388457   0.000000
     8  H    3.930948   3.879313   0.000000
     9  H    2.156145   3.385130   3.669755   0.000000
    10  H    3.362742   2.142066   3.432809   4.872265   0.000000
    11  H    1.083169   2.150175   4.972050   2.495336   4.273951
    12  H    2.160260   1.080951   4.890178   4.299555   2.478607
                   11         12
    11  H    0.000000
    12  H    2.502187   0.000000
 Stoichiometry    C5H5NO
 Framework group  CS[SG(C5H5NO)]
 Deg. of freedom    21
 Full point group                 CS      NOp   2
 Largest Abelian subgroup         CS      NOp   2
 Largest concise Abelian subgroup C1      NOp   1
                         Standard orientation:                         
 ---------------------------------------------------------------------
 Center     Atomic      Atomic             Coordinates (Angstroms)
 Number     Number       Type             X           Y           Z
 ---------------------------------------------------------------------
      1          8           0       -0.010906    2.253090   -0.000000
      2          7           0       -1.161751    0.296198   -0.000000
      3          6           0        0.000000    0.909145   -0.000000
      4          6           0        1.224913    0.250620    0.000000
      5          6           0       -1.161012   -1.034031   -0.000000
      6          6           0        1.203609   -1.120706    0.000000
      7          6           0       -0.013236   -1.789361    0.000000
      8          1           0       -1.381493    1.840644   -0.000000
      9          1           0        2.143426    0.819837    0.000000
     10          1           0       -2.136749   -1.508052   -0.000000
     11          1           0        2.133921   -1.675481    0.000000
     12          1           0       -0.065240   -2.869060    0.000000
 ---------------------------------------------------------------------
 Rotational constants (GHZ):      5.8738444      2.8554912      1.9214190
 Leave Link  202 at Sat Aug 28 00:50:30 2021, MaxMem= 17179869184 cpu:        14.1
 (Enter /public3/home/sc51754/softwares/g09e01/l301.exe)
 General basis read from cards:  (5D, 7F)
 Centers:       8      9     10     11     12
 S 4 1.00
     Exponent=  7.5423000000D+01 Coefficients=  2.4065000000D-03
     Exponent=  1.1350000000D+01 Coefficients=  1.8487000000D-02
     Exponent=  2.5993000000D+00 Coefficients=  8.9742000000D-02
     Exponent=  7.3513000000D-01 Coefficients=  2.8111000000D-01
 S 1 1.00
     Exponent=  2.3167000000D-01 Coefficients=  1.0000000000D+00
 S 1 1.00
     Exponent=  7.4147000000D-02 Coefficients=  1.0000000000D+00
 P 1 1.00
     Exponent=  1.6000000000D+00 Coefficients=  1.0000000000D+00
 P 1 1.00
     Exponent=  4.5000000000D-01 Coefficients=  1.0000000000D+00
 D 1 1.00
     Exponent=  1.2500000000D+00 Coefficients=  1.0000000000D+00
 ****
 Centers:       3      4      5      6      7
 S 7 1.00
     Exponent=  7.8571000000D+03 Coefficients=  5.6825000000D-04
     Exponent=  1.1787000000D+03 Coefficients=  4.3915000000D-03
     Exponent=  2.6832000000D+02 Coefficients=  2.2504000000D-02
     Exponent=  7.5948000000D+01 Coefficients=  8.6653000000D-02
     Exponent=  2.4559000000D+01 Coefficients=  2.4405000000D-01
     Exponent=  8.6212000000D+00 Coefficients=  4.4148000000D-01
     Exponent=  3.1278000000D+00 Coefficients=  3.5332000000D-01
 S 7 1.00
     Exponent=  1.1787000000D+03 Coefficients= -5.9492000000D-07
     Exponent=  2.6832000000D+02 Coefficients= -6.2748000000D-05
     Exponent=  7.5948000000D+01 Coefficients= -7.5773000000D-04
     Exponent=  2.4559000000D+01 Coefficients= -7.3308000000D-03
     Exponent=  8.6212000000D+00 Coefficients= -3.8932000000D-02
     Exponent=  3.1278000000D+00 Coefficients= -8.8908000000D-02
     Exponent=  8.2202000000D-01 Coefficients=  2.1689000000D-01
 S 1 1.00
     Exponent=  3.3017000000D-01 Coefficients=  1.0000000000D+00
 S 1 1.00
     Exponent=  1.1463000000D-01 Coefficients=  1.0000000000D+00
 P 4 1.00
     Exponent=  3.3775000000D+01 Coefficients=  6.0294000000D-03
     Exponent=  7.6766000000D+00 Coefficients=  4.3228000000D-02
     Exponent=  2.2357000000D+00 Coefficients=  1.6301000000D-01
     Exponent=  7.6447000000D-01 Coefficients=  3.6504000000D-01
 P 1 1.00
     Exponent=  2.6232000000D-01 Coefficients=  1.0000000000D+00
 P 1 1.00
     Exponent=  8.4638000000D-02 Coefficients=  1.0000000000D+00
 D 1 1.00
     Exponent=  1.4000000000D+00 Coefficients=  1.0000000000D+00
 D 1 1.00
     Exponent=  4.5000000000D-01 Coefficients=  1.0000000000D+00
 F 1 1.00
     Exponent=  9.5000000000D-01 Coefficients=  1.0000000000D+00
 ****
 Centers:       2
 S 7 1.00
     Exponent=  1.1101000000D+04 Coefficients=  5.4570000000D-04
     Exponent=  1.6653000000D+03 Coefficients=  4.2181000000D-03
     Exponent=  3.7908000000D+02 Coefficients=  2.1645000000D-02
     Exponent=  1.0730000000D+02 Coefficients=  8.3776000000D-02
     Exponent=  3.4747000000D+01 Coefficients=  2.3881000000D-01
     Exponent=  1.2249000000D+01 Coefficients=  4.3994000000D-01
     Exponent=  4.4743000000D+00 Coefficients=  3.6364000000D-01
 S 7 1.00
     Exponent=  1.6653000000D+03 Coefficients= -1.5006000000D-06
     Exponent=  3.7908000000D+02 Coefficients= -5.8753000000D-05
     Exponent=  1.0730000000D+02 Coefficients= -7.7453000000D-04
     Exponent=  3.4747000000D+01 Coefficients= -7.2161000000D-03
     Exponent=  1.2249000000D+01 Coefficients= -3.9338000000D-02
     Exponent=  4.4743000000D+00 Coefficients= -9.0611000000D-02
     Exponent=  1.2404000000D+00 Coefficients=  1.9882000000D-01
 S 1 1.00
     Exponent=  4.8743000000D-01 Coefficients=  1.0000000000D+00
 S 1 1.00
     Exponent=  1.6484000000D-01 Coefficients=  1.0000000000D+00
 P 4 1.00
     Exponent=  4.7934000000D+01 Coefficients=  6.1706000000D-03
     Exponent=  1.0999000000D+01 Coefficients=  4.4260000000D-02
     Exponent=  3.2472000000D+00 Coefficients=  1.6825000000D-01
     Exponent=  1.1114000000D+00 Coefficients=  3.6848000000D-01
 P 1 1.00
     Exponent=  3.7988000000D-01 Coefficients=  1.0000000000D+00
 P 1 1.00
     Exponent=  1.2068000000D-01 Coefficients=  1.0000000000D+00
 D 1 1.00
     Exponent=  1.8000000000D+00 Coefficients=  1.0000000000D+00
 D 1 1.00
     Exponent=  5.5000000000D-01 Coefficients=  1.0000000000D+00
 F 1 1.00
     Exponent=  1.0200000000D+00 Coefficients=  1.0000000000D+00
 ****
 Centers:       1
 S 7 1.00
     Exponent=  1.4782000000D+04 Coefficients=  5.3519000000D-04
     Exponent=  2.2173000000D+03 Coefficients=  4.1375000000D-03
     Exponent=  5.0474000000D+02 Coefficients=  2.1245000000D-02
     Exponent=  1.4287000000D+02 Coefficients=  8.2453000000D-02
     Exponent=  4.6300000000D+01 Coefficients=  2.3671000000D-01
     Exponent=  1.6337000000D+01 Coefficients=  4.4039000000D-01
     Exponent=  5.9828000000D+00 Coefficients=  3.6465000000D-01
 S 7 1.00
     Exponent=  2.2173000000D+03 Coefficients= -1.9275000000D-06
     Exponent=  5.0474000000D+02 Coefficients= -5.7964000000D-05
     Exponent=  1.4287000000D+02 Coefficients= -7.9494000000D-04
     Exponent=  4.6300000000D+01 Coefficients= -7.3125000000D-03
     Exponent=  1.6337000000D+01 Coefficients= -4.0574000000D-02
     Exponent=  5.9828000000D+00 Coefficients= -9.1594000000D-02
     Exponent=  1.6718000000D+00 Coefficients=  2.0940000000D-01
 S 1 1.00
     Exponent=  6.4662000000D-01 Coefficients=  1.0000000000D+00
 S 1 1.00
     Exponent=  2.1669000000D-01 Coefficients=  1.0000000000D+00
 P 4 1.00
     Exponent=  6.0424000000D+01 Coefficients=  6.8949000000D-03
     Exponent=  1.3935000000D+01 Coefficients=  4.9005000000D-02
     Exponent=  4.1531000000D+00 Coefficients=  1.8255000000D-01
     Exponent=  1.4158000000D+00 Coefficients=  3.7633000000D-01
 P 1 1.00
     Exponent=  4.7549000000D-01 Coefficients=  1.0000000000D+00
 P 1 1.00
     Exponent=  1.4529000000D-01 Coefficients=  1.0000000000D+00
 D 1 1.00
     Exponent=  2.2000000000D+00 Coefficients=  1.0000000000D+00
 D 1 1.00
     Exponent=  6.5000000000D-01 Coefficients=  1.0000000000D+00
 F 1 1.00
     Exponent=  1.1000000000D+00 Coefficients=  1.0000000000D+00
 ****
 Ernie: Thresh=  0.10000D-02 Tol=  0.10000D-05 Strict=F.
 Ernie:  7 primitive shells out of 220 were deleted.
 There are   223 symmetry adapted cartesian basis functions of A'  symmetry.
 There are    97 symmetry adapted cartesian basis functions of A"  symmetry.
 There are   190 symmetry adapted basis functions of A'  symmetry.
 There are    90 symmetry adapted basis functions of A"  symmetry.
   280 basis functions,   475 primitive gaussians,   320 cartesian basis functions
    25 alpha electrons       25 beta electrons
       nuclear repulsion energy       277.7178314150 Hartrees.
 IExCor=32609 DFT=T Ex+Corr=LC-wPBE ExCW=0 ScaHFX=  1.000000
 ScaDFX=  1.000000  0.000000  1.000000  1.000000 ScalE2=  1.000000  1.000000
 IRadAn=      0 IRanWt=     -1 IRanGd=            0 ICorTp=0 IEmpDi=  4
  HFx wShort=  0.000000 wLong=  0.400000 cFull=  0.000000 cShort=  0.000000 cLong=  1.000000
  DFx wShort=  0.000000 wLong=  0.400000 cFull=  0.000000 cShort=  0.000000 cLong=  1.000000
 NAtoms=   12 NActive=   12 NUniq=   12 SFac= 1.00D+00 NAtFMM=   60 NAOKFM=F Big=F
 Integral buffers will be    131072 words long.
 Raffenetti 2 integral format.
 Two-electron integral symmetry is turned on.
 Leave Link  301 at Sat Aug 28 00:50:31 2021, MaxMem= 17179869184 cpu:        11.1
 (Enter /public3/home/sc51754/softwares/g09e01/l302.exe)
 NPDir=0 NMtPBC=     1 NCelOv=     1 NCel=       1 NClECP=     1 NCelD=      1
         NCelK=      1 NCelE2=     1 NClLst=     1 CellRange=     0.0.
 One-electron integrals computed using PRISM.
 NBasis=   280 RedAO= T EigKep=  2.15D-04  NBF=   190    90
 NBsUse=   280 1.00D-06 EigRej= -1.00D+00 NBFU=   190    90
 Precomputing XC quadrature grid using
 IXCGrd= 4 IRadAn=           0 IRanWt=          -1 IRanGd=           0 AccXCQ= 0.00D+00.
 Generated NRdTot=       0 NPtTot=           0 NUsed=           0 NTot=          32
 NSgBfM=   320   320   320   320   320 MxSgAt=    12 MxSgA2=    12.
 Leave Link  302 at Sat Aug 28 00:50:34 2021, MaxMem= 17179869184 cpu:        92.2
 (Enter /public3/home/sc51754/softwares/g09e01/l303.exe)
 DipDrv:  MaxL=1.
 Leave Link  303 at Sat Aug 28 00:50:35 2021, MaxMem= 17179869184 cpu:        37.5
 (Enter /public3/home/sc51754/softwares/g09e01/l401.exe)
 ExpMin= 7.41D-02 ExpMax= 1.48D+04 ExpMxC= 5.05D+02 IAcc=2 IRadAn=         4 AccDes= 0.00D+00
 Harris functional with IExCor=32609 and IRadAn=       4 diagonalized for initial guess.
 HarFok:  IExCor=32609 AccDes= 0.00D+00 IRadAn=         4 IDoV= 1 UseB2=F ITyADJ=14
 ICtDFT=  3500011 ScaDFX=  1.000000  1.000000  1.000000  1.000000
 FoFCou: FMM=F IPFlag=           0 FMFlag=      100000 FMFlg1=           0
         NFxFlg=           0 DoJE=T BraDBF=F KetDBF=T FulRan=T
         wScrn=  0.000000 ICntrl=     500 IOpCl=  0 I1Cent=   200000004 NGrid=           0
         NMat0=    1 NMatS0=      1 NMatT0=    0 NMatD0=    1 NMtDS0=    0 NMtDT0=    0
 Petite list used in FoFCou.
 Harris En= -323.350073677978    
 JPrj=0 DoOrth=F DoCkMO=F.
 Initial guess orbital symmetries:
       Occupied  (A') (A') (A') (A') (A') (A') (A') (A') (A') (A')
                 (A') (A') (A') (A') (A') (A') (A') (A') (A") (A')
                 (A") (A') (A") (A') (A")
       Virtual   (A") (A") (A') (A') (A') (A") (A') (A') (A') (A')
                 (A') (A') (A") (A') (A') (A") (A") (A') (A') (A')
                 (A') (A") (A') (A') (A") (A') (A') (A') (A') (A')
                 (A') (A') (A") (A") (A') (A') (A') (A') (A') (A')
                 (A') (A') (A") (A') (A') (A') (A") (A') (A") (A")
                 (A') (A') (A') (A") (A") (A') (A") (A') (A') (A')
                 (A') (A") (A') (A') (A") (A') (A') (A") (A') (A")
                 (A') (A") (A") (A') (A") (A') (A') (A") (A') (A")
                 (A') (A") (A') (A') (A") (A') (A") (A') (A') (A")
                 (A') (A") (A') (A') (A') (A') (A') (A") (A') (A')
                 (A') (A') (A") (A') (A') (A') (A") (A') (A') (A')
                 (A") (A') (A') (A') (A') (A') (A") (A') (A') (A')
                 (A") (A') (A') (A") (A') (A") (A') (A") (A") (A')
                 (A") (A") (A') (A') (A") (A') (A') (A') (A") (A')
                 (A') (A') (A') (A") (A') (A") (A") (A') (A') (A')
                 (A') (A') (A") (A') (A") (A") (A") (A') (A') (A")
                 (A") (A') (A") (A') (A') (A") (A') (A") (A') (A')
                 (A") (A') (A") (A') (A") (A') (A') (A") (A") (A")
                 (A') (A") (A') (A') (A") (A') (A") (A") (A') (A")
                 (A") (A') (A") (A') (A') (A') (A") (A") (A') (A")
                 (A') (A') (A") (A") (A') (A') (A') (A") (A') (A')
                 (A') (A") (A') (A") (A') (A') (A") (A') (A') (A")
                 (A') (A") (A') (A') (A") (A') (A') (A") (A') (A')
                 (A') (A') (A") (A') (A') (A') (A') (A') (A") (A')
                 (A') (A') (A") (A') (A') (A') (A') (A') (A') (A')
                 (A') (A') (A') (A') (A')
 The electronic state of the initial guess is 1-A'.
 Leave Link  401 at Sat Aug 28 00:50:37 2021, MaxMem= 17179869184 cpu:        64.9
 (Enter /public3/home/sc51754/softwares/g09e01/l502.exe)
 Closed shell SCF:
 Using DIIS extrapolation, IDIIS=  1040.
 Integral symmetry usage will be decided dynamically.
 Keep R1 ints in memory in symmetry-blocked form, NReq=2335173138.
 IVT=      348658 IEndB=      348658 NGot= 17179869184 MDV= 16785904737
 LenX= 16785904737 LenY= 16785801896
 Requested convergence on RMS density matrix=1.00D-08 within 128 cycles.
 Requested convergence on MAX density matrix=1.00D-06.
 Requested convergence on             energy=1.00D-06.
 No special actions if energy rises.
 FoFCou: FMM=F IPFlag=           0 FMFlag=           0 FMFlg1=           0
         NFxFlg=           0 DoJE=F BraDBF=F KetDBF=F FulRan=T
         wScrn=  0.000000 ICntrl=     600 IOpCl=  0 I1Cent=           0 NGrid=           0
         NMat0=    1 NMatS0=  39340 NMatT0=    0 NMatD0=    1 NMtDS0=    0 NMtDT0=    0
 Petite list used in FoFCou.
 Integral accuracy reduced to 1.0D-05 until final iterations.

 Cycle   1  Pass 0  IDiag  1:
 E= -323.189448208804    
 DIIS: error= 2.35D-02 at cycle   1 NSaved=   1.
 NSaved= 1 IEnMin= 1 EnMin= -323.189448208804     IErMin= 1 ErrMin= 2.35D-02
 ErrMax= 2.35D-02  0.00D+00 EMaxC= 1.00D-01 BMatC= 1.74D-01 BMatP= 1.74D-01
 IDIUse=3 WtCom= 7.65D-01 WtEn= 2.35D-01
 Coeff-Com:  0.100D+01
 Coeff-En:   0.100D+01
 Coeff:      0.100D+01
 Gap=     0.314 Goal=   None    Shift=    0.000
 GapD=    0.314 DampG=1.000 DampE=0.500 DampFc=0.5000 IDamp=-1.
 Damping current iteration by 5.00D-01
 RMSDP=2.05D-03 MaxDP=1.06D-01              OVMax= 1.29D-01

 Cycle   2  Pass 0  IDiag  1:
 E= -323.270371281603     Delta-E=       -0.080923072799 Rises=F Damp=T
 DIIS: error= 7.78D-03 at cycle   2 NSaved=   2.
 NSaved= 2 IEnMin= 2 EnMin= -323.270371281603     IErMin= 2 ErrMin= 7.78D-03
 ErrMax= 7.78D-03  0.00D+00 EMaxC= 1.00D-01 BMatC= 1.27D-02 BMatP= 1.74D-01
 IDIUse=3 WtCom= 9.22D-01 WtEn= 7.78D-02
 Coeff-Com: -0.808D-01 0.108D+01
 Coeff-En:   0.000D+00 0.100D+01
 Coeff:     -0.745D-01 0.107D+01
 Gap=     0.393 Goal=   None    Shift=    0.000
 RMSDP=5.82D-04 MaxDP=2.45D-02 DE=-8.09D-02 OVMax= 8.37D-02

 Cycle   3  Pass 0  IDiag  1:
 E= -323.342291827745     Delta-E=       -0.071920546143 Rises=F Damp=F
 DIIS: error= 5.62D-03 at cycle   3 NSaved=   3.
 NSaved= 3 IEnMin= 3 EnMin= -323.342291827745     IErMin= 3 ErrMin= 5.62D-03
 ErrMax= 5.62D-03  0.00D+00 EMaxC= 1.00D-01 BMatC= 9.22D-03 BMatP= 1.27D-02
 IDIUse=3 WtCom= 9.44D-01 WtEn= 5.62D-02
 Coeff-Com: -0.927D-01 0.532D+00 0.560D+00
 Coeff-En:   0.000D+00 0.000D+00 0.100D+01
 Coeff:     -0.875D-01 0.502D+00 0.585D+00
 Gap=     0.373 Goal=   None    Shift=    0.000
 RMSDP=2.46D-04 MaxDP=1.29D-02 DE=-7.19D-02 OVMax= 2.99D-02

 Cycle   4  Pass 0  IDiag  1:
 E= -323.348411726047     Delta-E=       -0.006119898301 Rises=F Damp=F
 DIIS: error= 1.68D-03 at cycle   4 NSaved=   4.
 NSaved= 4 IEnMin= 4 EnMin= -323.348411726047     IErMin= 4 ErrMin= 1.68D-03
 ErrMax= 1.68D-03  0.00D+00 EMaxC= 1.00D-01 BMatC= 9.55D-04 BMatP= 9.22D-03
 IDIUse=3 WtCom= 9.83D-01 WtEn= 1.68D-02
 Coeff-Com: -0.179D-01 0.652D-01 0.264D+00 0.688D+00
 Coeff-En:   0.000D+00 0.000D+00 0.426D-01 0.957D+00
 Coeff:     -0.176D-01 0.641D-01 0.260D+00 0.693D+00
 Gap=     0.376 Goal=   None    Shift=    0.000
 RMSDP=7.16D-05 MaxDP=4.08D-03 DE=-6.12D-03 OVMax= 6.85D-03

 Cycle   5  Pass 0  IDiag  1:
 E= -323.349138792679     Delta-E=       -0.000727066632 Rises=F Damp=F
 DIIS: error= 2.35D-04 at cycle   5 NSaved=   5.
 NSaved= 5 IEnMin= 5 EnMin= -323.349138792679     IErMin= 5 ErrMin= 2.35D-04
 ErrMax= 2.35D-04  0.00D+00 EMaxC= 1.00D-01 BMatC= 1.76D-05 BMatP= 9.55D-04
 IDIUse=3 WtCom= 9.98D-01 WtEn= 2.35D-03
 Coeff-Com:  0.128D-02-0.119D-01 0.318D-01 0.163D+00 0.816D+00
 Coeff-En:   0.000D+00 0.000D+00 0.000D+00 0.000D+00 0.100D+01
 Coeff:      0.128D-02-0.119D-01 0.317D-01 0.163D+00 0.816D+00
 Gap=     0.375 Goal=   None    Shift=    0.000
 RMSDP=1.96D-05 MaxDP=1.05D-03 DE=-7.27D-04 OVMax= 2.21D-03

 Cycle   6  Pass 0  IDiag  1:
 E= -323.349160579431     Delta-E=       -0.000021786752 Rises=F Damp=F
 DIIS: error= 1.52D-04 at cycle   6 NSaved=   6.
 NSaved= 6 IEnMin= 6 EnMin= -323.349160579431     IErMin= 6 ErrMin= 1.52D-04
 ErrMax= 1.52D-04  0.00D+00 EMaxC= 1.00D-01 BMatC= 3.93D-06 BMatP= 1.76D-05
 IDIUse=3 WtCom= 9.98D-01 WtEn= 1.52D-03
 Coeff-Com:  0.215D-02-0.102D-01-0.125D-01-0.537D-02 0.310D+00 0.716D+00
 Coeff-En:   0.000D+00 0.000D+00 0.000D+00 0.000D+00 0.000D+00 0.100D+01
 Coeff:      0.215D-02-0.102D-01-0.125D-01-0.536D-02 0.310D+00 0.716D+00
 Gap=     0.376 Goal=   None    Shift=    0.000
 RMSDP=7.23D-06 MaxDP=3.60D-04 DE=-2.18D-05 OVMax= 1.02D-03

 Initial convergence to 1.0D-05 achieved.  Increase integral accuracy.
 Cycle   7  Pass 1  IDiag  1:
 E= -323.349116467005     Delta-E=        0.000044112425 Rises=F Damp=F
 DIIS: error= 6.26D-05 at cycle   1 NSaved=   1.
 NSaved= 1 IEnMin= 1 EnMin= -323.349116467005     IErMin= 1 ErrMin= 6.26D-05
 ErrMax= 6.26D-05  0.00D+00 EMaxC= 1.00D-01 BMatC= 3.66D-07 BMatP= 3.66D-07
 IDIUse=1 WtCom= 1.00D+00 WtEn= 0.00D+00
 Coeff-Com:  0.100D+01
 Coeff:      0.100D+01
 Gap=     0.376 Goal=   None    Shift=    0.000
 RMSDP=7.23D-06 MaxDP=3.60D-04 DE= 4.41D-05 OVMax= 7.96D-04

 Cycle   8  Pass 1  IDiag  1:
 E= -323.349117782386     Delta-E=       -0.000001315381 Rises=F Damp=F
 DIIS: error= 4.21D-05 at cycle   2 NSaved=   2.
 NSaved= 2 IEnMin= 2 EnMin= -323.349117782386     IErMin= 2 ErrMin= 4.21D-05
 ErrMax= 4.21D-05  0.00D+00 EMaxC= 1.00D-01 BMatC= 1.57D-07 BMatP= 3.66D-07
 IDIUse=1 WtCom= 1.00D+00 WtEn= 0.00D+00
 Coeff-Com:  0.246D+00 0.754D+00
 Coeff:      0.246D+00 0.754D+00
 Gap=     0.376 Goal=   None    Shift=    0.000
 RMSDP=1.76D-06 MaxDP=6.63D-05 DE=-1.32D-06 OVMax= 3.31D-04

 Cycle   9  Pass 1  IDiag  1:
 E= -323.349118177942     Delta-E=       -0.000000395556 Rises=F Damp=F
 DIIS: error= 2.54D-05 at cycle   3 NSaved=   3.
 NSaved= 3 IEnMin= 3 EnMin= -323.349118177942     IErMin= 3 ErrMin= 2.54D-05
 ErrMax= 2.54D-05  0.00D+00 EMaxC= 1.00D-01 BMatC= 4.75D-08 BMatP= 1.57D-07
 IDIUse=1 WtCom= 1.00D+00 WtEn= 0.00D+00
 Coeff-Com: -0.288D+00 0.187D+00 0.110D+01
 Coeff:     -0.288D+00 0.187D+00 0.110D+01
 Gap=     0.376 Goal=   None    Shift=    0.000
 RMSDP=2.03D-06 MaxDP=6.20D-05 DE=-3.96D-07 OVMax= 4.65D-04

 Cycle  10  Pass 1  IDiag  1:
 E= -323.349118448155     Delta-E=       -0.000000270213 Rises=F Damp=F
 DIIS: error= 1.02D-05 at cycle   4 NSaved=   4.
 NSaved= 4 IEnMin= 4 EnMin= -323.349118448155     IErMin= 4 ErrMin= 1.02D-05
 ErrMax= 1.02D-05  0.00D+00 EMaxC= 1.00D-01 BMatC= 1.12D-08 BMatP= 4.75D-08
 IDIUse=1 WtCom= 1.00D+00 WtEn= 0.00D+00
 Coeff-Com: -0.114D+00-0.139D+00 0.304D+00 0.949D+00
 Coeff:     -0.114D+00-0.139D+00 0.304D+00 0.949D+00
 Gap=     0.376 Goal=   None    Shift=    0.000
 RMSDP=9.12D-07 MaxDP=2.81D-05 DE=-2.70D-07 OVMax= 1.75D-04

 Cycle  11  Pass 1  IDiag  1:
 E= -323.349118492825     Delta-E=       -0.000000044669 Rises=F Damp=F
 DIIS: error= 4.61D-06 at cycle   5 NSaved=   5.
 NSaved= 5 IEnMin= 5 EnMin= -323.349118492825     IErMin= 5 ErrMin= 4.61D-06
 ErrMax= 4.61D-06  0.00D+00 EMaxC= 1.00D-01 BMatC= 4.31D-09 BMatP= 1.12D-08
 IDIUse=1 WtCom= 1.00D+00 WtEn= 0.00D+00
 Coeff-Com: -0.693D-02-0.127D+00-0.215D-01 0.545D+00 0.610D+00
 Coeff:     -0.693D-02-0.127D+00-0.215D-01 0.545D+00 0.610D+00
 Gap=     0.376 Goal=   None    Shift=    0.000
 RMSDP=2.92D-07 MaxDP=9.52D-06 DE=-4.47D-08 OVMax= 6.50D-05

 Cycle  12  Pass 1  IDiag  1:
 E= -323.349118529321     Delta-E=       -0.000000036496 Rises=F Damp=F
 DIIS: error= 1.59D-06 at cycle   6 NSaved=   6.
 NSaved= 6 IEnMin= 6 EnMin= -323.349118529321     IErMin= 6 ErrMin= 1.59D-06
 ErrMax= 1.59D-06  0.00D+00 EMaxC= 1.00D-01 BMatC= 3.43D-10 BMatP= 4.31D-09
 IDIUse=1 WtCom= 1.00D+00 WtEn= 0.00D+00
 Coeff-Com:  0.234D-01-0.106D-01-0.626D-01-0.598D-01 0.145D+00 0.965D+00
 Coeff:      0.234D-01-0.106D-01-0.626D-01-0.598D-01 0.145D+00 0.965D+00
 Gap=     0.376 Goal=   None    Shift=    0.000
 RMSDP=1.47D-07 MaxDP=3.82D-06 DE=-3.65D-08 OVMax= 2.90D-05

 Cycle  13  Pass 1  IDiag  1:
 E= -323.349118530529     Delta-E=       -0.000000001208 Rises=F Damp=F
 DIIS: error= 5.29D-07 at cycle   7 NSaved=   7.
 NSaved= 7 IEnMin= 7 EnMin= -323.349118530529     IErMin= 7 ErrMin= 5.29D-07
 ErrMax= 5.29D-07  0.00D+00 EMaxC= 1.00D-01 BMatC= 4.80D-11 BMatP= 3.43D-10
 IDIUse=1 WtCom= 1.00D+00 WtEn= 0.00D+00
 Coeff-Com:  0.540D-02 0.125D-01-0.667D-02-0.853D-01-0.697D-01 0.192D+00
 Coeff-Com:  0.951D+00
 Coeff:      0.540D-02 0.125D-01-0.667D-02-0.853D-01-0.697D-01 0.192D+00
 Coeff:      0.951D+00
 Gap=     0.376 Goal=   None    Shift=    0.000
 RMSDP=5.86D-08 MaxDP=1.82D-06 DE=-1.21D-09 OVMax= 1.07D-05

 Cycle  14  Pass 1  IDiag  1:
 E= -323.349118530691     Delta-E=       -0.000000000162 Rises=F Damp=F
 DIIS: error= 1.46D-07 at cycle   8 NSaved=   8.
 NSaved= 8 IEnMin= 8 EnMin= -323.349118530691     IErMin= 8 ErrMin= 1.46D-07
 ErrMax= 1.46D-07  0.00D+00 EMaxC= 1.00D-01 BMatC= 1.01D-11 BMatP= 4.80D-11
 IDIUse=1 WtCom= 1.00D+00 WtEn= 0.00D+00
 Coeff-Com: -0.260D-02 0.584D-02 0.117D-01-0.148D-01-0.571D-01-0.128D+00
 Coeff-Com:  0.316D+00 0.869D+00
 Coeff:     -0.260D-02 0.584D-02 0.117D-01-0.148D-01-0.571D-01-0.128D+00
 Coeff:      0.316D+00 0.869D+00
 Gap=     0.376 Goal=   None    Shift=    0.000
 RMSDP=2.28D-08 MaxDP=7.03D-07 DE=-1.62D-10 OVMax= 3.22D-06

 Cycle  15  Pass 1  IDiag  1:
 E= -323.349118530712     Delta-E=       -0.000000000020 Rises=F Damp=F
 DIIS: error= 3.75D-08 at cycle   9 NSaved=   9.
 NSaved= 9 IEnMin= 9 EnMin= -323.349118530712     IErMin= 9 ErrMin= 3.75D-08
 ErrMax= 3.75D-08  0.00D+00 EMaxC= 1.00D-01 BMatC= 7.12D-13 BMatP= 1.01D-11
 IDIUse=1 WtCom= 1.00D+00 WtEn= 0.00D+00
 Coeff-Com: -0.103D-02 0.991D-04 0.343D-02 0.247D-02-0.870D-02-0.417D-01
 Coeff-Com:  0.124D-01 0.211D+00 0.822D+00
 Coeff:     -0.103D-02 0.991D-04 0.343D-02 0.247D-02-0.870D-02-0.417D-01
 Coeff:      0.124D-01 0.211D+00 0.822D+00
 Gap=     0.376 Goal=   None    Shift=    0.000
 RMSDP=5.54D-09 MaxDP=1.69D-07 DE=-2.02D-11 OVMax= 7.54D-07

 SCF Done:  E(RLC-wPBE) =  -323.349118531     A.U. after   15 cycles
            NFock= 15  Conv=0.55D-08     -V/T= 2.0043
 KE= 3.219768682318D+02 PE=-1.310101763428D+03 EE= 3.870579452503D+02
 Leave Link  502 at Sat Aug 28 00:50:49 2021, MaxMem= 17179869184 cpu:       455.2
 (Enter /public3/home/sc51754/softwares/g09e01/l801.exe)
 DoSCS=F DFT=T ScalE2(SS,OS)=  1.000000  1.000000
 Range of M.O.s used for correlation:     1   280
 NBasis=   280 NAE=    25 NBE=    25 NFC=     0 NFV=     0
 NROrb=    280 NOA=    25 NOB=    25 NVA=   255 NVB=   255

 **** Warning!!: The largest alpha MO coefficient is  0.19694020D+02

 Leave Link  801 at Sat Aug 28 00:50:49 2021, MaxMem= 17179869184 cpu:         0.7
 (Enter /public3/home/sc51754/softwares/g09e01/l1101.exe)
 Using compressed storage, NAtomX=    12.
 Will process     13 centers per pass.
 Leave Link 1101 at Sat Aug 28 00:50:51 2021, MaxMem= 17179869184 cpu:        53.3
 (Enter /public3/home/sc51754/softwares/g09e01/l1102.exe)
 Symmetrizing basis deriv contribution to polar:
 IMax=3 JMax=2 DiffMx= 0.00D+00
 Leave Link 1102 at Sat Aug 28 00:50:52 2021, MaxMem= 17179869184 cpu:        11.6
 (Enter /public3/home/sc51754/softwares/g09e01/l1110.exe)
 Forming Gx(P) for the SCF density, NAtomX=    12.
 Integral derivatives from FoFJK, PRISM(SPDF).
 Do as many integral derivatives as possible in FoFJK.
 G2DrvN: MDV=   17179868984.
 G2DrvN: will do    13 centers at a time, making    1 passes.
 Calling FoFCou, ICntrl=  3107 FMM=F I1Cent=   0 AccDes= 0.00D+00.
 FoFJK:  IHMeth= 1 ICntrl=    3107 DoSepK=T KAlg= 0 I1Cent=   0 FoldK=F
 IRaf=         1 NMat=   1 IRICut=       1 DoRegI=T DoRafI=F ISym2E= 1.
 FoFCou: FMM=F IPFlag=           0 FMFlag=      100000 FMFlg1=           0
         NFxFlg=           0 DoJE=F BraDBF=F KetDBF=F FulRan=T
         wScrn=  0.000000 ICntrl=    3507 IOpCl=  0 I1Cent=           0 NGrid=           0
         NMat0=    1 NMatS0=      1 NMatT0=    0 NMatD0=    1 NMtDS0=    0 NMtDT0=    0
 Petite list used in FoFCou.
 End of G2Drv F.D. properties file   721 does not exist.
 End of G2Drv F.D. properties file   722 does not exist.
 End of G2Drv F.D. properties file   788 does not exist.
 Leave Link 1110 at Sat Aug 28 00:50:59 2021, MaxMem= 17179869184 cpu:       416.9
 (Enter /public3/home/sc51754/softwares/g09e01/l1002.exe)
 Minotr:  Closed shell wavefunction.
          IDoAtm=111111111111
          Direct CPHF calculation.
          Differentiating once with respect to nuclear coordinates.
          Using symmetry in CPHF.
          Requested convergence is 1.0D-08 RMS, and 1.0D-07 maximum.
          Secondary convergence is 1.0D-12 RMS, and 1.0D-12 maximum.
          NewPWx=T KeepS1=F KeepF1=F KeepIn=T MapXYZ=F SortEE=F KeepMc=T.
          MDV=   17179868780 using IRadAn=       2.
 Generate precomputed XC quadrature information.
 Keep R1 ints in memory in symmetry-blocked form, NReq=2334829665.
 FoFCou: FMM=F IPFlag=           0 FMFlag=           0 FMFlg1=           0
         NFxFlg=           0 DoJE=F BraDBF=F KetDBF=F FulRan=T
         wScrn=  0.000000 ICntrl=     600 IOpCl=  0 I1Cent=           0 NGrid=           0
         NMat0=    1 NMatS0=  39340 NMatT0=    0 NMatD0=    1 NMtDS0=    0 NMtDT0=    0
 Petite list used in FoFCou.
          Solving linear equations simultaneously, MaxMat=       0.
          There are    39 degrees of freedom in the 1st order CPHF.  IDoFFX=6 NUNeed=     0.
     33 vectors produced by pass  0 Test12= 1.63D-14 2.56D-09 XBig12= 7.45D-02 7.18D-02.
 AX will form    33 AO Fock derivatives at one time.
     33 vectors produced by pass  1 Test12= 1.63D-14 2.56D-09 XBig12= 7.06D-03 2.81D-02.
     33 vectors produced by pass  2 Test12= 1.63D-14 2.56D-09 XBig12= 3.23D-04 3.24D-03.
     33 vectors produced by pass  3 Test12= 1.63D-14 2.56D-09 XBig12= 4.32D-06 4.35D-04.
     33 vectors produced by pass  4 Test12= 1.63D-14 2.56D-09 XBig12= 4.36D-08 6.07D-05.
     33 vectors produced by pass  5 Test12= 1.63D-14 2.56D-09 XBig12= 4.03D-10 4.67D-06.
     31 vectors produced by pass  6 Test12= 1.63D-14 2.56D-09 XBig12= 2.96D-12 2.90D-07.
     21 vectors produced by pass  7 Test12= 1.63D-14 2.56D-09 XBig12= 2.00D-14 2.16D-08.
 InvSVY:  IOpt=1 It=  1 EMax= 1.55D-15
 Solved reduced A of dimension   250 with    33 vectors.
 End of Minotr F.D. properties file   721 does not exist.
 End of Minotr F.D. properties file   722 does not exist.
 End of Minotr F.D. properties file   788 does not exist.
 Leave Link 1002 at Sat Aug 28 00:51:13 2021, MaxMem= 17179869184 cpu:       875.1
 (Enter /public3/home/sc51754/softwares/g09e01/l601.exe)
 Copying SCF densities to generalized density rwf, IOpCl= 0 IROHF=0.

 **********************************************************************

            Population analysis using the SCF density.

 **********************************************************************

 Orbital symmetries:
       Occupied  (A') (A') (A') (A') (A') (A') (A') (A') (A') (A')
                 (A') (A') (A') (A') (A') (A') (A") (A') (A') (A')
                 (A") (A') (A') (A") (A")
       Virtual   (A") (A") (A') (A') (A') (A') (A') (A') (A") (A')
                 (A') (A") (A') (A') (A") (A') (A") (A') (A') (A")
                 (A') (A') (A") (A') (A') (A') (A') (A') (A') (A')
                 (A") (A') (A') (A') (A") (A') (A') (A') (A') (A')
                 (A') (A') (A") (A') (A') (A') (A") (A') (A") (A")
                 (A') (A') (A') (A") (A") (A") (A') (A') (A') (A')
                 (A') (A') (A") (A') (A") (A') (A') (A') (A") (A')
                 (A") (A") (A') (A") (A") (A') (A") (A') (A') (A')
                 (A") (A") (A') (A') (A') (A") (A") (A') (A') (A')
                 (A") (A") (A') (A') (A') (A') (A') (A") (A') (A')
                 (A') (A') (A") (A') (A') (A') (A") (A') (A') (A')
                 (A") (A') (A') (A') (A') (A') (A") (A') (A') (A')
                 (A") (A') (A') (A") (A') (A") (A') (A") (A") (A")
                 (A') (A") (A') (A") (A') (A') (A') (A") (A') (A')
                 (A') (A') (A") (A') (A') (A") (A") (A') (A') (A')
                 (A') (A') (A") (A') (A") (A") (A") (A') (A') (A")
                 (A") (A') (A") (A') (A') (A") (A") (A') (A') (A')
                 (A") (A') (A") (A') (A") (A') (A') (A") (A") (A")
                 (A') (A') (A") (A') (A") (A") (A') (A") (A') (A")
                 (A") (A") (A') (A') (A') (A") (A') (A") (A') (A")
                 (A') (A") (A') (A") (A') (A') (A') (A") (A') (A')
                 (A') (A") (A') (A") (A') (A') (A') (A") (A') (A")
                 (A") (A') (A') (A') (A") (A') (A") (A') (A') (A')
                 (A') (A') (A") (A') (A') (A') (A') (A') (A") (A')
                 (A') (A') (A") (A') (A') (A') (A') (A') (A') (A')
                 (A') (A') (A') (A') (A')
 The electronic state is 1-A'.
 Alpha  occ. eigenvalues --  -18.97128 -14.23833 -10.21009 -10.17092 -10.14344
 Alpha  occ. eigenvalues --  -10.12320 -10.12019  -1.18382  -1.09287  -0.97469
 Alpha  occ. eigenvalues --   -0.90673  -0.80747  -0.76423  -0.67822  -0.64814
 Alpha  occ. eigenvalues --   -0.60047  -0.58909  -0.56514  -0.55715  -0.50633
 Alpha  occ. eigenvalues --   -0.47364  -0.45918  -0.43067  -0.42439  -0.34178
 Alpha virt. eigenvalues --    0.03395   0.07234   0.07357   0.09339   0.10729
 Alpha virt. eigenvalues --    0.12502   0.14308   0.20355   0.22500   0.22507
 Alpha virt. eigenvalues --    0.23880   0.24155   0.25997   0.26960   0.28150
 Alpha virt. eigenvalues --    0.28161   0.28993   0.33154   0.33547   0.35599
 Alpha virt. eigenvalues --    0.36239   0.37921   0.38335   0.38595   0.40899
 Alpha virt. eigenvalues --    0.42795   0.45058   0.46330   0.46640   0.48945
 Alpha virt. eigenvalues --    0.52280   0.52817   0.53259   0.54433   0.54583
 Alpha virt. eigenvalues --    0.59495   0.60636   0.61296   0.64733   0.69068
 Alpha virt. eigenvalues --    0.72223   0.72879   0.74396   0.75735   0.77291
 Alpha virt. eigenvalues --    0.78189   0.80870   0.82749   0.87473   0.90912
 Alpha virt. eigenvalues --    0.92557   0.99376   1.00515   1.01501   1.04818
 Alpha virt. eigenvalues --    1.05799   1.06621   1.07417   1.09289   1.11544
 Alpha virt. eigenvalues --    1.12285   1.18703   1.20547   1.20564   1.25422
 Alpha virt. eigenvalues --    1.25801   1.26902   1.27569   1.31428   1.32325
 Alpha virt. eigenvalues --    1.33470   1.36663   1.38189   1.38547   1.40639
 Alpha virt. eigenvalues --    1.47395   1.52126   1.52221   1.52898   1.59160
 Alpha virt. eigenvalues --    1.60753   1.62352   1.62591   1.64944   1.67763
 Alpha virt. eigenvalues --    1.68175   1.72002   1.72268   1.76234   1.77271
 Alpha virt. eigenvalues --    1.78451   1.80358   1.82050   1.84565   1.87043
 Alpha virt. eigenvalues --    1.88765   1.91816   1.96523   1.96965   1.97629
 Alpha virt. eigenvalues --    2.02278   2.03559   2.08940   2.11023   2.12105
 Alpha virt. eigenvalues --    2.20730   2.22145   2.24273   2.28866   2.30866
 Alpha virt. eigenvalues --    2.32861   2.34861   2.36256   2.38238   2.41669
 Alpha virt. eigenvalues --    2.44051   2.51022   2.51699   2.75050   2.78666
 Alpha virt. eigenvalues --    2.96390   2.96508   3.03930   3.06116   3.13606
 Alpha virt. eigenvalues --    3.24636   3.27916   3.29530   3.33845   3.37164
 Alpha virt. eigenvalues --    3.37948   3.40781   3.46640   3.48180   3.49275
 Alpha virt. eigenvalues --    3.52102   3.52654   3.60013   3.60229   3.67157
 Alpha virt. eigenvalues --    3.69048   3.69868   3.70389   3.71872   3.75106
 Alpha virt. eigenvalues --    3.76917   3.83710   3.83730   3.88285   3.94656
 Alpha virt. eigenvalues --    3.99311   4.00736   4.00816   4.02937   4.03562
 Alpha virt. eigenvalues --    4.07556   4.12325   4.14772   4.16680   4.17527
 Alpha virt. eigenvalues --    4.19903   4.21361   4.23396   4.25400   4.27950
 Alpha virt. eigenvalues --    4.28499   4.29856   4.29924   4.32381   4.34278
 Alpha virt. eigenvalues --    4.37522   4.37877   4.38708   4.40616   4.41239
 Alpha virt. eigenvalues --    4.43768   4.44553   4.44681   4.47444   4.50954
 Alpha virt. eigenvalues --    4.52484   4.53225   4.54200   4.55168   4.57034
 Alpha virt. eigenvalues --    4.58816   4.58927   4.60976   4.65621   4.67132
 Alpha virt. eigenvalues --    4.68602   4.72542   4.72939   4.75579   4.77851
 Alpha virt. eigenvalues --    4.82194   4.82927   4.86151   4.89897   4.94629
 Alpha virt. eigenvalues --    4.96681   5.02733   5.03778   5.04319   5.09615
 Alpha virt. eigenvalues --    5.14852   5.19295   5.20324   5.26877   5.29518
 Alpha virt. eigenvalues --    5.30594   5.35877   5.38222   5.38948   5.41436
 Alpha virt. eigenvalues --    5.44518   5.46130   5.47050   5.49563   5.51578
 Alpha virt. eigenvalues --    5.52800   5.53844   5.58047   5.63546   5.64835
 Alpha virt. eigenvalues --    5.68442   5.74167   5.75268   5.77256   5.83715
 Alpha virt. eigenvalues --    5.85869   5.92413   5.94064   5.98920   6.12038
 Alpha virt. eigenvalues --    6.17126   6.21213   6.25821   6.33705   6.45129
 Alpha virt. eigenvalues --    6.51857   6.58637   6.60632   6.63295   6.73965
 Alpha virt. eigenvalues --    6.94459   7.18572   7.26214   9.49482  11.93440
 Alpha virt. eigenvalues --   12.64401  14.72067  17.42088  18.44366  22.19727
          Condensed to atoms (all electrons):
               1          2          3          4          5          6
     1  O    8.072514  -0.142637   0.414326  -0.068700  -0.000182   0.005247
     2  N   -0.142637   6.692561   0.382558  -0.012037   0.518405  -0.029733
     3  C    0.414326   0.382558   4.413400   0.509628  -0.093090  -0.051164
     4  C   -0.068700  -0.012037   0.509628   4.828701  -0.036688   0.546150
     5  C   -0.000182   0.518405  -0.093090  -0.036688   4.560889  -0.076712
     6  C    0.005247  -0.029733  -0.051164   0.546150  -0.076712   4.685695
     7  C   -0.000398  -0.037374  -0.040216  -0.062147   0.565699   0.488852
     8  H    0.213340   0.077465  -0.041213   0.020646  -0.003463  -0.005473
     9  H    0.003363   0.005984  -0.028077   0.441775  -0.002086  -0.030164
    10  H   -0.000704  -0.030624   0.002002  -0.002150   0.438054   0.005886
    11  H   -0.000321  -0.000919   0.005845  -0.028154   0.005410   0.431182
    12  H    0.000030   0.005335  -0.001083   0.005456  -0.025796  -0.028577
               7          8          9         10         11         12
     1  O   -0.000398   0.213340   0.003363  -0.000704  -0.000321   0.000030
     2  N   -0.037374   0.077465   0.005984  -0.030624  -0.000919   0.005335
     3  C   -0.040216  -0.041213  -0.028077   0.002002   0.005845  -0.001083
     4  C   -0.062147   0.020646   0.441775  -0.002150  -0.028154   0.005456
     5  C    0.565699  -0.003463  -0.002086   0.438054   0.005410  -0.025796
     6  C    0.488852  -0.005473  -0.030164   0.005886   0.431182  -0.028577
     7  C    4.899362   0.003467   0.005625  -0.048096  -0.035258   0.437927
     8  H    0.003467   0.466995  -0.000288  -0.002158   0.000094  -0.000077
     9  H    0.005625  -0.000288   0.549184   0.000150  -0.004039  -0.000073
    10  H   -0.048096  -0.002158   0.000150   0.574393  -0.000099  -0.003225
    11  H   -0.035258   0.000094  -0.004039  -0.000099   0.568638  -0.004322
    12  H    0.437927  -0.000077  -0.000073  -0.003225  -0.004322   0.562906
 Mulliken charges:
               1
     1  O   -0.495877
     2  N   -0.428984
     3  C    0.527082
     4  C   -0.142479
     5  C    0.149559
     6  C    0.058813
     7  C   -0.177443
     8  H    0.270664
     9  H    0.058647
    10  H    0.066572
    11  H    0.061945
    12  H    0.051501
 Sum of Mulliken charges =  -0.00000
 Mulliken charges with hydrogens summed into heavy atoms:
               1
     1  O   -0.225213
     2  N   -0.428984
     3  C    0.527082
     4  C   -0.083832
     5  C    0.216131
     6  C    0.120758
     7  C   -0.125942
 APT charges:
               1
     1  O   -0.277544
     2  N   -0.406343
     3  C    0.168280
     4  C   -0.531186
     5  C   -0.360130
     6  C   -0.340993
     7  C   -0.531792
     8  H    0.316397
     9  H    0.435286
    10  H    0.488144
    11  H    0.501292
    12  H    0.538588
 Sum of APT charges =  -0.00000
 APT charges with hydrogens summed into heavy atoms:
               1
     1  O    0.038853
     2  N   -0.406343
     3  C    0.168280
     4  C   -0.095900
     5  C    0.128014
     6  C    0.160300
     7  C    0.006796
 Electronic spatial extent (au):  <R**2>=            618.3091
 Charge=             -0.0000 electrons
 Dipole moment (field-independent basis, Debye):
    X=             -0.0299    Y=             -3.2196    Z=              0.0000  Tot=              3.2198
 Quadrupole moment (field-independent basis, Debye-Ang):
   XX=            -34.9253   YY=            -43.0968   ZZ=            -42.9668
   XY=             -1.2180   XZ=             -0.0000   YZ=              0.0000
 Traceless Quadrupole moment (field-independent basis, Debye-Ang):
   XX=              5.4043   YY=             -2.7671   ZZ=             -2.6372
   XY=             -1.2180   XZ=             -0.0000   YZ=              0.0000
 Octapole moment (field-independent basis, Debye-Ang**2):
  XXX=              2.5888  YYY=            -21.9075  ZZZ=             -0.0000  XYY=             -5.0657
  XXY=              0.6112  XXZ=              0.0000  XZZ=             -1.2574  YZZ=              4.1596
  YYZ=              0.0000  XYZ=             -0.0000
 Hexadecapole moment (field-independent basis, Debye-Ang**3):
 XXXX=           -254.6498 YYYY=           -511.9116 ZZZZ=            -45.5851 XXXY=              7.9827
 XXXZ=             -0.0000 YYYX=             -6.0744 YYYZ=              0.0000 ZZZX=             -0.0000
 ZZZY=              0.0000 XXYY=           -107.3002 XXZZ=            -59.1089 YYZZ=            -96.5063
 XXYZ=              0.0000 YYXZ=             -0.0000 ZZXY=              1.9031
 N-N= 2.777178314150D+02 E-N=-1.310101760457D+03  KE= 3.219768682318D+02
 Symmetry A'   KE= 3.102230004951D+02
 Symmetry A"   KE= 1.175386773673D+01
  Exact polarizability:   0.000   0.000   0.000   0.000   0.000   0.000
 Approx polarizability:  81.266   2.777  93.057   0.000  -0.000  41.840
 No NMR shielding tensors so no spin-rotation constants.
 Leave Link  601 at Sat Aug 28 00:51:15 2021, MaxMem= 17179869184 cpu:        68.8
 (Enter /public3/home/sc51754/softwares/g09e01/l701.exe)
 Compute integral second derivatives.
 ... and contract with generalized density number  0.
 Leave Link  701 at Sat Aug 28 00:51:16 2021, MaxMem= 17179869184 cpu:        66.8
 (Enter /public3/home/sc51754/softwares/g09e01/l702.exe)
 L702 exits ... SP integral derivatives will be done elsewhere.
 Leave Link  702 at Sat Aug 28 00:51:16 2021, MaxMem= 17179869184 cpu:         1.2
 (Enter /public3/home/sc51754/softwares/g09e01/l703.exe)
 Compute integral second derivatives, UseDBF=F ICtDFT=           0.
 Integral derivatives from FoFJK, PRISM(SPDF).
 Calling FoFJK, ICntrl=    100147 FMM=F ISym2X=1 I1Cent= 0 IOpClX= 0 NMat=1 NMatS=1 NMatT=0.
 FoFJK:  IHMeth= 1 ICntrl=  100147 DoSepK=T KAlg= 0 I1Cent=   0 FoldK=F
 IRaf=         1 NMat=   1 IRICut=       1 DoRegI=T DoRafI=F ISym2E= 1.
 FoFCou: FMM=F IPFlag=           0 FMFlag=      100000 FMFlg1=         800
         NFxFlg=           0 DoJE=F BraDBF=F KetDBF=F FulRan=T
         wScrn=  0.000000 ICntrl=  100547 IOpCl=  0 I1Cent=           0 NGrid=           0
         NMat0=    1 NMatS0=      1 NMatT0=    0 NMatD0=    1 NMtDS0=    0 NMtDT0=    0
 Petite list used in FoFCou.
 Leave Link  703 at Sat Aug 28 00:51:29 2021, MaxMem= 17179869184 cpu:       823.9
 (Enter /public3/home/sc51754/softwares/g09e01/l716.exe)
 Dipole        =-1.17755328D-02-1.26670208D+00 4.77583977D-32
 Polarizability= 0.00000000D+00 0.00000000D+00 0.00000000D+00
                 0.00000000D+00 0.00000000D+00 0.00000000D+00
 ***** Axes restored to original set *****
 -------------------------------------------------------------------
 Center     Atomic                   Forces (Hartrees/Bohr)
 Number     Number              X              Y              Z
 -------------------------------------------------------------------
      1        8          -0.094898261   -0.061464646   -0.000000000
      2        7           0.005285608    0.021978821   -0.000000000
      3        6           0.048492362    0.041813946    0.000000000
      4        6           0.005148428   -0.018485173    0.000000000
      5        6          -0.011641961   -0.015480613    0.000000000
      6        6           0.006885326    0.008358656   -0.000000000
      7        6          -0.009389215    0.003204632   -0.000000000
      8        1           0.052036710    0.019330510    0.000000000
      9        1          -0.001213659    0.000278085   -0.000000000
     10        1           0.000699842    0.000140043    0.000000000
     11        1          -0.000061434   -0.000508643    0.000000000
     12        1          -0.001343746    0.000834381   -0.000000000
 -------------------------------------------------------------------
 Cartesian Forces:  Max     0.094898261 RMS     0.024403956
 Force constants in Cartesian coordinates: 
                1             2             3             4             5 
      1  0.645215D-01
      2  0.124058D-01  0.438259D+00
      3  0.000000D+00  0.000000D+00  0.839477D-01
      4 -0.144978D-01 -0.308311D-01  0.000000D+00  0.549018D+00
      5 -0.110202D+00 -0.439870D-01  0.000000D+00  0.140916D+00  0.659437D+00
      6  0.000000D+00  0.000000D+00  0.185797D-01  0.000000D+00  0.000000D+00
      7 -0.972544D-01  0.436524D-02  0.000000D+00 -0.358408D+00 -0.602559D-01
      8 -0.234821D-01 -0.295761D+00  0.000000D+00 -0.120453D+00 -0.222467D+00
      9  0.000000D+00  0.000000D+00 -0.789002D-01  0.000000D+00  0.000000D+00
     10 -0.483449D-02  0.230053D-01  0.000000D+00 -0.593125D-01 -0.395384D-01
     11  0.595377D-01 -0.540671D-01  0.000000D+00  0.202956D-01  0.863944D-01
     12  0.000000D+00  0.000000D+00  0.156970D-01  0.000000D+00  0.000000D+00
     13  0.455651D-02  0.931782D-03  0.000000D+00 -0.129812D+00 -0.153720D-01
     14  0.232220D-01 -0.453650D-02  0.000000D+00  0.198429D-01 -0.365750D+00
     15  0.000000D+00  0.000000D+00  0.725466D-02  0.000000D+00  0.000000D+00
     16 -0.171473D-01  0.920400D-02  0.000000D+00 -0.239074D-01 -0.571561D-01
     17 -0.134738D-01  0.159966D-01  0.000000D+00 -0.344445D-01 -0.740106D-01
     18  0.000000D+00  0.000000D+00  0.530316D-02  0.000000D+00  0.000000D+00
     19  0.175190D-01 -0.124545D-01  0.000000D+00  0.484829D-01  0.105827D+00
     20 -0.626679D-02 -0.789173D-02  0.000000D+00  0.212210D-01 -0.542872D-01
     21  0.000000D+00  0.000000D+00 -0.200054D-02  0.000000D+00  0.000000D+00
     22  0.432256D-01 -0.608854D-02  0.000000D+00 -0.866195D-02  0.308553D-01
     23  0.588145D-01 -0.472115D-01  0.000000D+00  0.987920D-02  0.375608D-01
     24  0.000000D+00  0.000000D+00 -0.462795D-01  0.000000D+00  0.000000D+00
     25  0.271263D-02 -0.327876D-03  0.000000D+00 -0.460490D-02  0.363635D-02
     26 -0.918767D-03  0.554985D-03  0.000000D+00  0.512630D-02 -0.968264D-03
     27  0.000000D+00  0.000000D+00 -0.234091D-02  0.000000D+00  0.000000D+00
     28 -0.606604D-03 -0.487536D-04  0.000000D+00  0.515130D-02 -0.326586D-02
     29 -0.617399D-03 -0.114670D-02  0.000000D+00 -0.338896D-01 -0.204102D-01
     30  0.000000D+00  0.000000D+00  0.644939D-03  0.000000D+00  0.000000D+00
     31  0.176239D-04  0.238083D-03  0.000000D+00  0.589839D-03 -0.772338D-03
     32  0.159571D-02 -0.582639D-03  0.000000D+00 -0.598644D-03 -0.817353D-03
     33  0.000000D+00  0.000000D+00 -0.115257D-02  0.000000D+00  0.000000D+00
     34  0.178773D-02 -0.399396D-03  0.000000D+00 -0.403720D-02  0.532878D-02
     35 -0.614673D-03  0.373457D-03  0.000000D+00  0.293591D-02 -0.694340D-03
     36  0.000000D+00  0.000000D+00 -0.753484D-03  0.000000D+00  0.000000D+00
                6             7             8             9            10 
      6  0.980854D-01
      7  0.000000D+00  0.801959D+00
      8  0.000000D+00 -0.241281D-01  0.679934D+00
      9 -0.779589D-01  0.000000D+00  0.000000D+00  0.202107D+00
     10  0.000000D+00 -0.291928D+00  0.986687D-01  0.000000D+00  0.753476D+00
     11  0.000000D+00  0.364064D-01 -0.142420D+00  0.000000D+00  0.512324D-01
     12  0.158440D-01  0.000000D+00  0.000000D+00 -0.828507D-01  0.000000D+00
     13  0.000000D+00  0.351431D-01 -0.397322D-01  0.000000D+00 -0.210654D-01
     14  0.000000D+00 -0.129401D+00 -0.303615D-01  0.000000D+00  0.453527D-01
     15 -0.594346D-01  0.000000D+00  0.000000D+00  0.284149D-02  0.000000D+00
     16  0.000000D+00  0.649420D-01  0.249576D-01  0.000000D+00 -0.147655D+00
     17  0.000000D+00  0.930830D-01 -0.443815D-01  0.000000D+00 -0.447323D-01
     18 -0.735386D-02  0.000000D+00  0.000000D+00  0.330768D-02  0.000000D+00
     19  0.000000D+00 -0.100783D+00  0.126914D-01  0.000000D+00  0.456635D-01
     20  0.000000D+00  0.169201D-01  0.384963D-02  0.000000D+00 -0.347122D-01
     21  0.203613D-01  0.000000D+00  0.000000D+00 -0.104843D-01  0.000000D+00
     22  0.000000D+00 -0.403418D-01  0.884872D-01  0.000000D+00  0.413662D-02
     23  0.000000D+00  0.495530D-01  0.492191D-01  0.000000D+00  0.674805D-02
     24 -0.185830D-01  0.000000D+00  0.000000D+00  0.186046D-01  0.000000D+00
     25  0.000000D+00 -0.154969D-01 -0.177600D-01  0.000000D+00 -0.279460D+00
     26  0.000000D+00  0.138169D-01  0.117137D-01  0.000000D+00 -0.131982D+00
     27  0.500904D-02  0.000000D+00  0.000000D+00  0.263233D-02  0.000000D+00
     28  0.000000D+00  0.303806D-02  0.104850D-02  0.000000D+00  0.198373D-03
     29  0.000000D+00  0.524390D-03 -0.400979D-02  0.000000D+00  0.155719D-03
     30 -0.472001D-03  0.000000D+00  0.000000D+00  0.948308D-02  0.000000D+00
     31  0.000000D+00  0.153348D-02 -0.131634D-02  0.000000D+00  0.526906D-02
     32  0.000000D+00 -0.825050D-03 -0.543602D-02  0.000000D+00  0.282195D-01
     33 -0.218328D-02  0.000000D+00  0.000000D+00  0.113301D-01  0.000000D+00
     34  0.000000D+00 -0.240289D-02  0.101817D-02  0.000000D+00 -0.448817D-02
     35  0.000000D+00 -0.596009D-04  0.120579D-03  0.000000D+00 -0.241740D-02
     36  0.810611D-02  0.000000D+00  0.000000D+00 -0.112014D-03  0.000000D+00
               11            12            13            14            15 
     11  0.762101D+00
     12  0.000000D+00  0.127721D+00
     13  0.302061D-01  0.000000D+00  0.785758D+00
     14 -0.706945D-01  0.000000D+00  0.306325D-01  0.723064D+00
     15  0.000000D+00 -0.371562D-02  0.000000D+00  0.000000D+00  0.160613D+00
     16  0.331111D-01  0.000000D+00 -0.655761D-01  0.451176D-01  0.000000D+00
     17 -0.393604D+00  0.000000D+00 -0.237070D-01  0.878078D-01  0.000000D+00
     18  0.000000D+00 -0.642252D-01  0.000000D+00  0.000000D+00  0.861167D-02
     19 -0.886990D-01  0.000000D+00 -0.304405D+00  0.539077D-01  0.000000D+00
     20 -0.214548D-01  0.000000D+00  0.141589D+00 -0.201675D+00  0.000000D+00
     21  0.000000D+00  0.980598D-02  0.000000D+00  0.000000D+00 -0.736283D-01
     22 -0.853268D-02  0.000000D+00 -0.929120D-02 -0.866083D-02  0.000000D+00
     23 -0.201496D-01  0.000000D+00 -0.146005D-01 -0.199103D-01  0.000000D+00
     24  0.000000D+00  0.562789D-02  0.000000D+00  0.000000D+00 -0.313453D-02
     25 -0.129912D+00  0.000000D+00  0.131156D-03  0.212164D-02  0.000000D+00
     26 -0.136588D+00  0.000000D+00  0.448081D-03 -0.137382D-02  0.000000D+00
     27  0.000000D+00 -0.356382D-01  0.000000D+00  0.000000D+00 -0.227951D-03
     28  0.110455D-02  0.000000D+00 -0.297954D+00 -0.105411D+00  0.000000D+00
     29 -0.643799D-03  0.000000D+00 -0.101560D+00 -0.105138D+00  0.000000D+00
     30  0.000000D+00 -0.851868D-03  0.000000D+00  0.000000D+00 -0.460780D-01
     31 -0.241765D-02  0.000000D+00 -0.423708D-02 -0.334486D-02  0.000000D+00
     32 -0.949592D-02  0.000000D+00 -0.369569D-02 -0.501424D-03  0.000000D+00
     33  0.000000D+00  0.706860D-02  0.000000D+00  0.000000D+00  0.677843D-02
     34 -0.233225D-02  0.000000D+00  0.675194D-02  0.266203D-01  0.000000D+00
     35  0.623057D-03  0.000000D+00 -0.514009D-02 -0.109300D-01  0.000000D+00
     36  0.000000D+00  0.551685D-02  0.000000D+00  0.000000D+00  0.119804D-03
               16            17            18            19            20 
     16  0.750165D+00
     17 -0.407551D-01  0.737304D+00
     18  0.000000D+00  0.000000D+00  0.154813D+00
     19 -0.298811D+00 -0.465501D-01  0.000000D+00  0.687361D+00
     20 -0.128658D+00 -0.182379D+00  0.000000D+00  0.180684D-02  0.793616D+00
     21  0.000000D+00  0.000000D+00 -0.663616D-01  0.000000D+00  0.000000D+00
     22  0.317712D-02  0.609688D-02  0.000000D+00 -0.540669D-02  0.113631D-02
     23  0.906137D-02  0.115708D-01  0.000000D+00 -0.132592D-01  0.521519D-02
     24  0.000000D+00  0.000000D+00 -0.334384D-03  0.000000D+00  0.000000D+00
     25  0.588614D-02  0.266077D-02  0.000000D+00  0.195430D-02  0.774627D-03
     26 -0.276448D-01 -0.927746D-02  0.000000D+00  0.119894D-02 -0.518614D-02
     27  0.000000D+00  0.000000D+00  0.291226D-02  0.000000D+00  0.000000D+00
     28 -0.354003D-02  0.337601D-02  0.000000D+00 -0.155168D-01 -0.134296D-01
     29  0.347235D-02 -0.155433D-02  0.000000D+00  0.156944D-01  0.120325D-01
     30  0.000000D+00  0.000000D+00  0.827701D-02  0.000000D+00  0.000000D+00
     31 -0.271559D+00  0.127453D+00  0.000000D+00 -0.159142D-01  0.169215D-01
     32  0.127000D+00 -0.139276D+00  0.000000D+00 -0.135998D-01  0.124531D-01
     33  0.000000D+00  0.000000D+00 -0.466830D-01  0.000000D+00  0.000000D+00
     34  0.402505D-02 -0.290071D-01  0.000000D+00 -0.601448D-01 -0.173029D-01
     35  0.229004D-02 -0.819619D-02  0.000000D+00 -0.165633D-01 -0.354292D+00
     36  0.000000D+00  0.000000D+00  0.173379D-02  0.000000D+00  0.000000D+00
               21            22            23            24            25 
     21  0.129110D+00
     22  0.000000D+00  0.149953D-01
     23  0.000000D+00 -0.103699D+00 -0.173057D-01
     24  0.273944D-02  0.000000D+00  0.000000D+00  0.435691D-01
     25  0.000000D+00 -0.123475D-02 -0.154865D-02  0.000000D+00  0.289365D+00
     26  0.000000D+00  0.116207D-03  0.808778D-03  0.000000D+00  0.140783D+00
     27  0.907636D-02  0.000000D+00  0.000000D+00 -0.362093D-03  0.000000D+00
     28  0.000000D+00  0.419815D-03  0.776111D-03  0.000000D+00 -0.333791D-04
     29  0.000000D+00 -0.206583D-03 -0.209921D-03  0.000000D+00 -0.121479D-03
     30  0.837207D-02  0.000000D+00  0.000000D+00 -0.147415D-02  0.000000D+00
     31  0.000000D+00 -0.463647D-05 -0.243811D-04  0.000000D+00  0.628850D-03
     32  0.000000D+00  0.212683D-04 -0.474158D-03  0.000000D+00 -0.498875D-03
     33  0.598584D-02  0.000000D+00  0.000000D+00 -0.801397D-03  0.000000D+00
     34  0.000000D+00 -0.101338D-02 -0.170042D-02  0.000000D+00  0.152405D-03
     35  0.000000D+00  0.474656D-03  0.886525D-03  0.000000D+00  0.192763D-03
     36 -0.329761D-01  0.000000D+00  0.000000D+00  0.427972D-03  0.000000D+00
               26            27            28            29            30 
     26  0.139531D+00
     27  0.000000D+00  0.250658D-01
     28 -0.407658D-04  0.000000D+00  0.309033D+00
     29  0.904914D-04  0.000000D+00  0.116229D+00  0.120002D+00
     30  0.000000D+00 -0.143721D-02  0.000000D+00  0.000000D+00  0.286229D-01
     31  0.337409D-03  0.000000D+00 -0.888336D-03  0.816928D-03  0.000000D+00
     32  0.111509D-02  0.000000D+00 -0.687369D-03  0.462259D-03  0.000000D+00
     33  0.000000D+00 -0.506831D-02  0.000000D+00  0.000000D+00 -0.611855D-03
     34 -0.124040D-02  0.000000D+00  0.699315D-03 -0.498542D-03  0.000000D+00
     35 -0.419926D-03  0.000000D+00  0.348932D-03  0.525439D-03  0.000000D+00
     36  0.000000D+00  0.378958D-03  0.000000D+00  0.000000D+00 -0.447497D-02
               31            32            33            34            35 
     31  0.283562D+00
     32 -0.137636D+00  0.141920D+00
     33  0.000000D+00  0.000000D+00  0.286872D-01
     34  0.100310D-02  0.705487D-03  0.000000D+00  0.576669D-01
     35 -0.255494D-03  0.633031D-03  0.000000D+00  0.188082D-01  0.371371D+00
     36  0.000000D+00  0.000000D+00 -0.334975D-02  0.000000D+00  0.000000D+00
               36 
     36  0.253829D-01
 FormGI is forming the generalized inverse of G from B-inverse, IUseBI=4.
 Leave Link  716 at Sat Aug 28 00:51:30 2021, MaxMem= 17179869184 cpu:         3.0
 (Enter /public3/home/sc51754/softwares/g09e01/l103.exe)

 GradGradGradGradGradGradGradGradGradGradGradGradGradGradGradGradGradGrad
 Berny optimization.
 Red2BG is reusing G-inverse.
 Internal  Forces:  Max     0.062288961 RMS     0.012361944
 Search for a saddle point.
 Step number   1 out of a maximum of  100
 All quantities printed in internal units (Hartrees-Bohrs-Radians)
 Second derivative matrix not updated -- analytic derivatives used.
 ITU=  0
 LST/QST climbing along tangent vector
     Eigenvalues ---   -0.06823   0.00123   0.00543   0.01646   0.01820
     Eigenvalues ---    0.02172   0.02374   0.02837   0.03214   0.04507
     Eigenvalues ---    0.05367   0.10451   0.10854   0.12092   0.13070
     Eigenvalues ---    0.14920   0.19912   0.20193   0.23489   0.29064
     Eigenvalues ---    0.34066   0.36364   0.36844   0.37348   0.37501
     Eigenvalues ---    0.44282   0.45539   0.50536   0.53066   0.58287
     Eigenvalues --- 1000.000001000.000001000.000001000.000001000.00000
     Eigenvalues --- 1000.000001000.000001000.000001000.000001000.00000
     Eigenvalues --- 1000.000001000.000001000.000001000.000001000.00000
     Eigenvalues --- 1000.000001000.000001000.000001000.000001000.00000
     Eigenvalues --- 1000.000001000.000001000.000001000.000001000.00000
     Eigenvalues --- 1000.000001000.000001000.00000
 Eigenvectors required to have negative eigenvalues:
                          R2        R5        A4        A3        D22
   1                    0.64622  -0.52919  -0.21812   0.18618   0.17748
                          D8        D21       A1        D10       D19
   1                   -0.16257   0.16111  -0.15248  -0.14914  -0.13412
 QST in optimization variable space.
                        Tangent   TS vect  // Eig F  Eigenval
   1         R1        -0.04781  -0.04781  -0.03329  -0.06823
   2         R2         0.64622   0.64622  -0.00095   0.00123
   3         R3         0.02113   0.02113   0.00634   0.00543
   4         R4         0.01200   0.01200  -0.00059   0.01646
   5         R5        -0.52919  -0.52919   0.00064   0.01820
   6         R6         0.02528   0.02528  -0.00008   0.02172
   7         R7        -0.01164  -0.01164   0.00046   0.02374
   8         R8         0.00005   0.00005   0.00025   0.02837
   9         R9        -0.01338  -0.01338   0.00039   0.03214
  10         R10       -0.00137  -0.00137   0.00020   0.04507
  11         R11        0.01635   0.01635  -0.02454   0.05367
  12         R12        0.00026   0.00026  -0.00345   0.10451
  13         R13       -0.00082  -0.00082   0.00552   0.10854
  14         A1        -0.15248  -0.15248  -0.00063   0.12092
  15         A2         0.03194   0.03194   0.00260   0.13070
  16         A3         0.18618   0.18618  -0.02154   0.14920
  17         A4        -0.21812  -0.21812  -0.00585   0.19912
  18         A5         0.00685   0.00685   0.00565   0.20193
  19         A6         0.03547   0.03547  -0.00749   0.23489
  20         A7        -0.04232  -0.04232   0.02145   0.29064
  21         A8         0.01532   0.01532  -0.01326   0.34066
  22         A9        -0.01438  -0.01438  -0.00006   0.36364
  23         A10       -0.00094  -0.00094  -0.00073   0.36844
  24         A11       -0.01129  -0.01129  -0.00175   0.37348
  25         A12        0.00070   0.00070   0.00034   0.37501
  26         A13        0.01059   0.01059   0.00228   0.44282
  27         A14        0.00711   0.00711  -0.00172   0.45539
  28         A15       -0.00163  -0.00163  -0.00163   0.50536
  29         A16       -0.00548  -0.00548   0.00096   0.53066
  30         A17       -0.00076  -0.00076   0.00272   0.58287
  31         A18        0.00021   0.00021   0.000001000.00000
  32         A19        0.00056   0.00056  -0.000001000.00000
  33         D1         0.02117   0.02117   0.000001000.00000
  34         D2         0.03253   0.03253  -0.000001000.00000
  35         D3        -0.01781  -0.01781  -0.000001000.00000
  36         D4        -0.02981  -0.02981   0.000001000.00000
  37         D5        -0.01981  -0.01981   0.000001000.00000
  38         D6        -0.03181  -0.03181  -0.000001000.00000
  39         D7         0.11946   0.11946  -0.000001000.00000
  40         D8        -0.16257  -0.16257   0.000001000.00000
  41         D9         0.13289   0.13289   0.000001000.00000
  42         D10       -0.14914  -0.14914   0.000001000.00000
  43         D11       -0.05123  -0.05123   0.000001000.00000
  44         D12       -0.01219  -0.01219  -0.000001000.00000
[...]
   R13        2.04053  -0.00000   0.00000  -0.00000  -0.00000   2.04053
    A1        1.29830  -0.00002   0.00000  -0.00001  -0.00001   1.29830
    A2        2.15203   0.00000   0.00000   0.00002   0.00002   2.15205
    A3        1.30526   0.00000   0.00000   0.00004   0.00004   1.30530
    A4        2.82590  -0.00001   0.00000  -0.00006  -0.00006   2.82584
    A5        1.84343  -0.00001   0.00000  -0.00002  -0.00002   1.84340
    A6        2.34073   0.00001   0.00000  -0.00000  -0.00000   2.34073
    A7        2.09903   0.00000   0.00000   0.00002   0.00002   2.09905
    A8        2.03130  -0.00001   0.00000  -0.00004  -0.00004   2.03126
    A9        2.10853   0.00000   0.00000   0.00002   0.00002   2.10855
   A10        2.14336   0.00000   0.00000   0.00001   0.00001   2.14338
   A11        2.08358  -0.00001   0.00000  -0.00004  -0.00004   2.08355
   A12        2.05107   0.00000   0.00000  -0.00000  -0.00000   2.05107
   A13        2.14853   0.00001   0.00000   0.00004   0.00004   2.14857
   A14        2.13360   0.00000   0.00000   0.00002   0.00002   2.13362
   A15        2.07644  -0.00000   0.00000  -0.00000  -0.00000   2.07644
   A16        2.07315  -0.00000   0.00000  -0.00002  -0.00002   2.07313
   A17        2.06684   0.00000   0.00000   0.00001   0.00001   2.06685
   A18        2.10270  -0.00000   0.00000  -0.00000  -0.00000   2.10270
   A19        2.11365  -0.00000   0.00000  -0.00001  -0.00001   2.11364
    D1        0.00005   0.00000   0.00000  -0.00005  -0.00005  -0.00000
    D2       -3.14158   0.00000   0.00000  -0.00002  -0.00002  -3.14159
    D3       -3.14098  -0.00000   0.00000  -0.00061  -0.00061  -3.14159
    D4        0.00063  -0.00001   0.00000  -0.00063  -0.00063  -0.00000
    D5       -0.00005  -0.00000   0.00000   0.00005   0.00005   0.00000
    D6        3.14157  -0.00000   0.00000   0.00002   0.00002   3.14159
    D7       -0.00038   0.00000   0.00000   0.00038   0.00038  -0.00000
    D8        3.14153  -0.00000   0.00000   0.00007   0.00007   3.14159
    D9       -3.13992  -0.00000   0.00000  -0.00167  -0.00167  -3.14159
   D10        0.00198  -0.00001   0.00000  -0.00198  -0.00198   0.00000
   D11        3.14114   0.00000   0.00000   0.00045   0.00045   3.14159
   D12       -0.00030   0.00000   0.00000   0.00030   0.00030   0.00000
   D13       -0.00048   0.00000   0.00000   0.00048   0.00048   0.00000
   D14        3.14126   0.00000   0.00000   0.00034   0.00034  -3.14159
   D15        0.00012  -0.00000   0.00000  -0.00012  -0.00012  -0.00000
   D16       -3.14149  -0.00000   0.00000  -0.00011  -0.00011  -3.14159
   D17        3.14156  -0.00000   0.00000   0.00003   0.00003   3.14159
   D18       -0.00004   0.00000   0.00000   0.00004   0.00004  -0.00000
   D19       -0.00000  -0.00000   0.00000   0.00000   0.00000   0.00000
   D20        3.14152   0.00000   0.00000   0.00008   0.00008  -3.14159
   D21        3.14126   0.00001   0.00000   0.00033   0.00033  -3.14159
   D22       -0.00041   0.00001   0.00000   0.00041   0.00041   0.00000
   D23        0.00012  -0.00000   0.00000  -0.00012  -0.00012  -0.00000
   D24       -3.14140  -0.00000   0.00000  -0.00019  -0.00019  -3.14159
   D25       -3.14146  -0.00000   0.00000  -0.00013  -0.00013   3.14159
   D26        0.00021  -0.00000   0.00000  -0.00021  -0.00021  -0.00000
         Item               Value     Threshold  Converged?
 Maximum Force            0.000093     0.000450     YES
 RMS     Force            0.000014     0.000300     YES
 Maximum Displacement     0.000716     0.001800     YES
 RMS     Displacement     0.000184     0.001200     YES
 Predicted change in Energy=-2.565156D-08
 Optimization completed.
    -- Stationary point found.
                           ----------------------------
                           !   Optimized Parameters   !
                           ! (Angstroms and Degrees)  !
 --------------------------                            --------------------------
 ! Name  Definition              Value          Derivative Info.                !
 --------------------------------------------------------------------------------
 ! R1    R(1,3)                  1.2791         -DE/DX =    0.0001              !
 ! R2    R(1,8)                  1.3555         -DE/DX =    0.0                 !
 ! R3    R(2,3)                  1.3462         -DE/DX =    0.0                 !
 ! R4    R(2,5)                  1.3293         -DE/DX =    0.0                 !
 ! R5    R(2,8)                  1.2768         -DE/DX =    0.0                 !
 ! R6    R(3,4)                  1.4015         -DE/DX =    0.0                 !
 ! R7    R(4,6)                  1.3688         -DE/DX =    0.0                 !
 ! R8    R(4,9)                  1.0797         -DE/DX =    0.0                 !
 ! R9    R(5,7)                  1.3685         -DE/DX =    0.0                 !
 ! R10   R(5,10)                 1.0823         -DE/DX =    0.0                 !
 ! R11   R(6,7)                  1.4021         -DE/DX =    0.0                 !
 ! R12   R(6,11)                 1.0837         -DE/DX =    0.0                 !
 ! R13   R(7,12)                 1.0798         -DE/DX =    0.0                 !
 ! A1    A(3,1,8)               74.3872         -DE/DX =    0.0                 !
 ! A2    A(3,2,5)              123.3023         -DE/DX =    0.0                 !
 ! A3    A(3,2,8)               74.7857         -DE/DX =    0.0                 !
 ! A4    A(5,2,8)              161.9121         -DE/DX =    0.0                 !
 ! A5    A(1,3,2)              105.6206         -DE/DX =    0.0                 !
 ! A6    A(1,3,4)              134.114          -DE/DX =    0.0                 !
 ! A7    A(2,3,4)              120.2654         -DE/DX =    0.0                 !
 ! A8    A(3,4,6)              116.3847         -DE/DX =    0.0                 !
 ! A9    A(3,4,9)              120.8096         -DE/DX =    0.0                 !
 ! A10   A(6,4,9)              122.8057         -DE/DX =    0.0                 !
 ! A11   A(2,5,7)              119.3804         -DE/DX =    0.0                 !
 ! A12   A(2,5,10)             117.5179         -DE/DX =    0.0                 !
 ! A13   A(7,5,10)             123.1017         -DE/DX =    0.0                 !
 ! A14   A(4,6,7)              122.2462         -DE/DX =    0.0                 !
 ! A15   A(4,6,11)             118.9713         -DE/DX =    0.0                 !
 ! A16   A(7,6,11)             118.7825         -DE/DX =    0.0                 !
 ! A17   A(5,7,6)              118.4211         -DE/DX =    0.0                 !
 ! A18   A(5,7,12)             120.4759         -DE/DX =    0.0                 !
 ! A19   A(6,7,12)             121.1031         -DE/DX =    0.0                 !
 ! D1    D(8,1,3,2)              0.0026         -DE/DX =    0.0                 !
 ! D2    D(8,1,3,4)           -179.999          -DE/DX =    0.0                 !
 ! D3    D(5,2,3,1)           -179.9651         -DE/DX =    0.0                 !
 ! D4    D(5,2,3,4)              0.0363         -DE/DX =    0.0                 !
 ! D5    D(8,2,3,1)             -0.0028         -DE/DX =    0.0                 !
 ! D6    D(8,2,3,4)            179.9986         -DE/DX =    0.0                 !
 ! D7    D(3,2,5,7)             -0.0215         -DE/DX =    0.0                 !
 ! D8    D(3,2,5,10)           179.9962         -DE/DX =    0.0                 !
 ! D9    D(8,2,5,7)           -179.9044         -DE/DX =    0.0                 !
 ! D10   D(8,2,5,10)             0.1133         -DE/DX =    0.0                 !
 ! D11   D(1,3,4,6)            179.9742         -DE/DX =    0.0                 !
 ! D12   D(1,3,4,9)             -0.0173         -DE/DX =    0.0                 !
 ! D13   D(2,3,4,6)             -0.0277         -DE/DX =    0.0                 !
 ! D14   D(2,3,4,9)           -180.0192         -DE/DX =    0.0                 !
 ! D15   D(3,4,6,7)              0.0071         -DE/DX =    0.0                 !
 ! D16   D(3,4,6,11)          -179.9938         -DE/DX =    0.0                 !
 ! D17   D(9,4,6,7)            179.9984         -DE/DX =    0.0                 !
 ! D18   D(9,4,6,11)            -0.0025         -DE/DX =    0.0                 !
 ! D19   D(2,5,7,6)             -0.0001         -DE/DX =    0.0                 !
 ! D20   D(2,5,7,12)          -180.0044         -DE/DX =    0.0                 !
 ! D21   D(10,5,7,6)          -180.0189         -DE/DX =    0.0                 !
 ! D22   D(10,5,7,12)           -0.0232         -DE/DX =    0.0                 !
 ! D23   D(4,6,7,5)              0.0067         -DE/DX =    0.0                 !
 ! D24   D(4,6,7,12)          -179.989          -DE/DX =    0.0                 !
 ! D25   D(11,6,7,5)           180.0076         -DE/DX =    0.0                 !
 ! D26   D(11,6,7,12)            0.0119         -DE/DX =    0.0                 !
 --------------------------------------------------------------------------------
 GradGradGradGradGradGradGradGradGradGradGradGradGradGradGradGradGradGrad

 Leave Link  103 at Sat Aug 28 00:57:29 2021, MaxMem= 17179869184 cpu:        44.5
 (Enter /public3/home/sc51754/softwares/g09e01/l9999.exe)
 1\1\GINC-Q2208\Freq\RLC-wPBE\Gen\C5H5N1O1\SC51754\28-Aug-2021\0\\#P Ge
 om=AllCheck Guess=TCheck SCRF=Check GenChk RLC-wPBE/ChkBas Freq\\HY_LC
 -wPBE_PC2_OPT_FREQ\\0,1\O,0.0349842171,2.5529222635,0.0031347398\N,-0.
 8625758223,0.6635039532,0.0006817416\C,0.3203379105,1.3060766468,0.001
 3674837\C,1.5188408012,0.5795724952,0.0001338903\C,-0.9736026281,-0.66
 11995109,-0.0004491587\C,1.4033804558,-0.7843938903,-0.0011617858\C,0.
 1586188592,-1.4298274011,-0.001408275\H,-1.1562326672,1.906049775,0.00
 25047381\H,2.4724339926,1.0859052916,0.000360058\H,-1.9718953587,-1.07
 93466285,-0.000859258\H,2.3038538503,-1.3874315236,-0.0020429779\H,0.0
 890223898,-2.507383871,-0.0022611961\\Version=EM64L-G09RevE.01\State=1
 -A\HF=-323.371016\RMSD=2.523e-09\RMSF=2.686e-05\ZeroPoint=0.0903771\Th
 ermal=0.095296\Dipole=-0.0171983,-1.4135916,-0.0016067\DipoleDeriv=-0.
 5439957,0.0405805,0.0000685,0.1658486,-1.7776848,-0.0017857,0.0002278,
 -0.0017761,-0.4067415,-0.3216605,-0.4226464,-0.0006151,0.2319958,-1.09
 7046,-0.0011188,-0.0000603,-0.0012577,-0.2275648,0.1736249,-0.4684532,
 -0.0004611,-0.2542062,1.8733018,0.0022176,-0.0002944,0.002488,0.250637
 1,-0.0297158,0.5457205,0.0005794,-0.1441196,-0.7315111,-0.0005946,-0.0
 00174,-0.0008134,-0.1966705,0.5127985,0.125324,0.0001125,-0.5785359,0.
 4520013,0.0005057,-0.0004229,0.0004868,0.0419394,0.445381,0.2024723,0.
 0000828,0.2980269,0.55413,0.0005964,0.0001501,0.0006572,-0.0514152,-0.
 7541563,-0.2002504,-0.000126,0.0954814,-0.199302,-0.000093,0.0002046,-
 0.0000396,-0.2206182,0.4297105,0.2035183,0.0002537,0.2030038,0.7857186
 ,0.0006848,0.0003447,0.0007073,0.2352289,0.0173922,-0.0310868,0.000012
 4,-0.034351,0.0576809,-0.000098,0.0000021,-0.0001645,0.1601624,0.00213
 16,-0.0528249,-0.0000297,-0.0320643,0.0649062,-0.0000492,-0.0000928,-0
 .0000586,0.125907,-0.0054672,0.0682676,0.000106,0.0691731,0.0537893,-0
 .0000895,0.0001093,-0.0000934,0.123607,0.0739568,-0.0106215,0.0000167,
 -0.0202525,-0.0359843,-0.0001758,0.0000059,-0.0001359,0.1655284\Polar=
 71.6069074,0.1321211,86.0776937,-0.008855,0.0542164,36.6275972\PG=C01 
 [X(C5H5N1O1)]\NImag=1\\0.08649135,-0.01748296,0.64760674,-0.00002954,0
 .00081723,0.05650618,-0.00625478,-0.05975471,-0.00007151,0.51536662,-0
 .16656170,-0.13206342,-0.00020336,0.13270373,0.76271814,-0.00019405,-0
 .00023263,0.03803137,0.00009086,0.00070366,0.09726817,-0.10768959,0.06
 545160,0.00009319,-0.28914606,-0.01739513,-0.00002726,0.75444091,0.030
 74290,-0.45216035,-0.00051662,-0.08424219,-0.20735555,-0.00012311,-0.1
 1380182,0.77290785,0.00004819,-0.00051467,-0.07752376,-0.00009390,-0.0
 0016231,-0.08359699,-0.00027268,0.00075461,0.20216683,-0.00832559,0.02
 342176,0.00003463,-0.04909206,-0.02828666,-0.00000530,-0.27825050,0.08
 151118,0.00016168,0.74752920,0.06532655,-0.02959030,-0.00007475,0.0185
 1882,0.08461695,0.00006921,0.03265061,-0.14641433,-0.00009631,0.067941
 58,0.73919819,0.00008668,-0.00007143,0.01426900,0.00002040,0.00008281,
 0.00970401,0.00012850,-0.00009492,-0.07894138,-0.00014488,0.00062574,0
 .12402611,0.00725199,-0.00083311,-0.00000007,-0.14869139,-0.03442566,-
 0.00000036,0.03840433,-0.02964306,-0.00002713,-0.01512642,0.02778281,0
 .00002845,0.81582598,0.02754233,0.00156312,-0.00001687,-0.00349268,-0.
 36976508,-0.00028509,-0.12026633,-0.01990543,0.00001360,0.03692972,-0.
 06972024,-0.00007715,0.02812653,0.71510425,0.00000900,-0.00000727,0.00
 723998,0.00002941,-0.00027929,-0.05589110,-0.00012402,-0.00003449,0.00
 061638,0.00003558,-0.00006608,-0.00185047,-0.00004253,0.00052492,0.158
 89695,-0.02378828,0.00371647,0.00001388,-0.02478600,-0.05822674,-0.000
 05005,0.06616625,0.02464986,0.00001048,-0.14475157,0.01570748,0.000035
 65,-0.06281986,0.04902591,0.00005855,0.71281187,-0.02323034,0.01173366
 ,0.00001587,-0.02654835,-0.07057135,-0.00005492,0.08880103,-0.04886449
 ,-0.00007397,-0.06209349,-0.39979275,-0.00031883,-0.01808042,0.0835616
 9,0.00007520,-0.04363428,0.74643501,-0.00001773,0.00000700,0.00527734,
 -0.00002008,-0.00004857,-0.00715799,0.00007606,-0.00006654,0.00175663,
 -0.00004262,-0.00032714,-0.06056030,-0.00000116,0.00006570,0.00761655,
 -0.00022055,0.00058061,0.15703467,0.02707569,-0.00609957,-0.00001708,0
 .04460838,0.10459245,0.00008758,-0.09854880,0.01465378,0.00003794,0.03
 879820,-0.08894415,-0.00009319,-0.31679852,0.06497688,0.00010572,-0.27
 253006,-0.03095143,0.00004183,0.67108446,-0.00628998,-0.01041276,-0.00
 001088,0.02544118,-0.06334777,-0.00008531,0.01419757,0.00519507,0.0000
 1696,-0.03279791,-0.01729839,-0.00001586,0.14933881,-0.20520634,-0.000
 15458,-0.11373566,-0.17362456,-0.00006484,-0.02333932,0.79472687,-0.00
 000926,-0.00000603,-0.00210795,0.00001103,-0.00009782,0.01917497,0.000
 03529,0.00001655,-0.01010353,-0.00003453,-0.00000478,0.00951494,0.0001
 8523,-0.00013436,-0.07113916,-0.00004293,-0.00008454,-0.06819493,-0.00
 015314,0.00057396,0.12584473,0.02122361,-0.00934106,-0.00002209,-0.037
 19046,0.06378947,0.00008759,-0.07183365,0.09258826,0.00014530,0.003066
 36,-0.01287543,-0.00001807,-0.00757645,-0.00926734,-0.00000417,0.00494
 324,0.00743262,0.00000702,-0.00667877,0.00090495,0.00000157,0.09596846
 ,0.09133922,-0.03501112,-0.00001221,0.02564160,0.01306861,0.00003610,0
 .03398294,0.09172166,0.00008176,0.01132229,-0.02715838,-0.00004571,-0.
 01843367,-0.02239508,0.00000645,0.01331376,0.01824556,0.00001748,-0.02
 044328,0.00643229,0.00000003,-0.13406702,-0.04576255,0.00010829,0.0000
 0299,-0.03753301,0.00004991,0.00003213,-0.03134084,0.00007376,0.000073
 62,0.02333433,0.00001223,-0.00003925,0.00636698,-0.00003872,-0.0000078
 3,-0.00607175,0.00001389,0.00001803,-0.00066666,-0.00001591,0.00000555
 ,0.00476419,-0.00019926,-0.00008953,0.04389132,0.00235302,0.00086588,-
 0.00000050,-0.00383348,0.00312960,0.00000750,-0.01576232,-0.01701784,-
 0.00001398,-0.29564390,-0.12176548,-0.00004254,-0.00017270,0.00232162,
 0.00000212,0.00422306,0.00153826,0.00000119,0.00245543,0.00048876,0.00
 000278,-0.00143347,-0.00129132,-0.00000198,0.30707195,-0.00208460,0.00
 003542,0.00000341,0.00475256,-0.00117033,-0.00000870,0.01529216,0.0132
 4311,0.00000709,-0.12282703,-0.12251658,-0.00005564,0.00052684,-0.0015
 6971,-0.00000143,-0.02844555,-0.00818922,-0.00000319,0.00094953,-0.004
 75661,-0.00001401,0.00063696,0.00076703,0.00000166,0.13215590,0.123278
 96,-0.00000195,0.00000182,-0.00232438,0.00000970,-0.00000680,0.0058276
 4,0.00001508,0.00002075,0.00221695,-0.00004277,-0.00006139,-0.03408240
 ,0.00000067,-0.00000568,-0.00034640,-0.00002662,-0.00000649,0.00229115
 ,-0.00000081,-0.00001348,0.00917463,0.00000134,0.00000119,-0.00036404,
 0.00004833,0.00006253,0.02416064,-0.00069748,-0.00034720,-0.00000040,0
 .00323305,-0.00355495,-0.00000422,0.00292119,0.00112175,0.00000072,0.0
 0013545,0.00086719,0.00000070,-0.31282936,-0.10007632,-0.00009178,-0.0
 0306155,0.00318171,0.00000366,-0.01334147,-0.01245826,-0.00001196,0.00
 045438,0.00078090,0.00000122,-0.00004724,-0.00003231,0.00000009,0.3233
 7959,0.00010210,-0.00178611,-0.00000306,-0.03623022,-0.01457660,-0.000
 01195,0.00207853,-0.00212175,-0.00001008,-0.00003194,-0.00071231,-0.00
 000001,-0.09552883,-0.09955903,-0.00004872,0.00349717,-0.00178430,-0.0
 0001068,0.01541392,0.01263930,0.00000248,-0.00023757,-0.00086771,0.000
 00124,-0.00014465,0.00013569,0.00000171,0.11083582,0.10766097,-0.00000
 102,0.00000005,0.00023221,-0.00002909,-0.00001514,0.00094054,0.0000026
 4,-0.00001435,0.00943804,-0.00000193,0.00000155,-0.00064558,-0.0001009
 0,-0.00005111,-0.04525055,0.00000488,-0.00001134,0.00831876,0.00002538
 ,0.00000477,0.00818603,0.00000053,0.00000531,-0.00249103,-0.00000071,0
 .00000196,-0.00166413,0.00010148,0.00007364,0.02796581,0.00006828,0.00
 030419,-0.00000016,0.00057899,-0.00123929,-0.00000129,0.00148080,-0.00
 182351,0.00000125,0.00613370,-0.00326645,-0.00000264,-0.00462548,-0.00
 279778,0.00000025,-0.25952653,0.13266555,0.00019853,-0.01613415,0.0174
 7964,0.00002420,0.00002113,0.00000886,-0.00000045,0.00069747,0.0002958
 6,-0.00000168,-0.00083910,0.00084162,0.00000052,0.27113795,0.00160345,
 -0.00009826,0.00000031,-0.00047692,-0.00065581,0.00000100,-0.00078235,
 -0.00609827,-0.00001652,0.02697732,-0.01137030,-0.00002650,-0.00363745
 ,-0.00039244,-0.00000561,0.13194993,-0.14951169,-0.00014176,-0.0129122
 4,0.01201262,0.00001004,-0.00008855,-0.00040555,0.00000006,-0.00041940
 ,0.00112602,0.00000667,-0.00063151,0.00047899,0.00000088,-0.14218730,0
 .15429047,0.00000081,0.00000233,-0.00134027,0.00000044,0.00000335,-0.0
 0100742,-0.00000149,-0.00001683,0.01107425,0.00002659,-0.00002245,0.00
 708880,0.00000130,-0.00000621,0.00612569,0.00020175,-0.00013836,-0.046
 54762,-0.00000948,-0.00000077,0.00594771,0.00000008,0.00000085,-0.0008
 7287,-0.00000241,0.00000664,-0.00534048,-0.00000005,0.00000053,-0.0006
 4969,-0.00021686,0.00016770,0.02883545,0.00229177,0.00009870,-0.000000
 35,-0.00479280,0.00547488,0.00000899,-0.00218255,0.00126070,0.00000213
 ,-0.00447288,-0.00194352,0.00000095,0.00715788,0.02697746,0.00002187,0
 .00311942,-0.02908085,-0.00002614,-0.05999040,-0.01922978,-0.00000829,
 -0.00096436,-0.00215427,-0.00000299,0.00009218,-0.00122032,-0.00000138
 ,0.00069254,-0.00059594,-0.00000177,0.00100694,0.00060503,-0.00000068,
 0.05804226,-0.00100695,0.00018338,0.00000091,0.00368717,-0.00089778,-0
 .00000827,-0.00020880,-0.00014752,-0.00000018,-0.00206683,0.00075843,-
 0.00000251,-0.00519279,-0.01171571,-0.00000910,0.00218165,-0.00763756,
 -0.00000807,-0.01789657,-0.35635973,-0.00026151,0.00052473,0.00136523,
 0.00000133,0.00013867,-0.00038378,-0.00000084,0.00031321,0.00049286,0.
 00000378,-0.00028141,0.00062423,0.00000321,0.01980791,0.37371795,0.000
 00059,0.00000061,-0.00072670,0.00000285,-0.00000866,0.00804765,0.00000
 092,0.00000132,-0.00043776,0.00000133,-0.00000436,0.00511030,-0.000004
 77,-0.00001991,0.00005387,0.00000106,-0.00000126,0.00083243,-0.0000088
 1,-0.00025553,-0.03106163,0.00000014,-0.00000172,0.00098337,0.00000018
 ,-0.00000031,0.00045083,0.00000053,0.00000488,-0.00438042,-0.00000168,
 0.00000371,-0.00331354,0.00000766,0.00028124,0.02444163\\0.00001458,-0
 .00010713,0.00000354,0.00000166,0.00002176,-0.00002728,-0.00003102,0.0
 0009331,0.00001385,-0.00000395,-0.00000823,-0.00000749,0.00000329,0.00
 001452,0.00003026,-0.00000232,-0.00000896,0.00000265,-0.00000027,-0.00
 000402,-0.00001117,0.00003233,0.00000744,0.00000386,0.00000346,-0.0000
 0903,-0.00000222,-0.00000248,0.00000803,-0.00001194,-0.00000558,-0.000
 00796,-0.00000149,-0.00000970,0.00000028,0.00000744\\\@


 The cat could very well be man's best friend
 but would never stoop to admitting it.
                               -- Doug Larson
 Job cpu time:       0 days  0 hours 52 minutes 29.1 seconds.
 File lengths (MBytes):  RWF=     81 Int=      0 D2E=      0 Chk=      7 Scr=      1
 Normal termination of Gaussian 09 at Sat Aug 28 00:57:29 2021.
