 Entering Gaussian System, Link 0=g09
 AtFile(1): pc-2.gbs
            -H     0
            S    4   1.00
                  0.754230D+02           0.240650D-02
                  0.113500D+02           0.184870D-01
                  0.259930D+01           0.897420D-01
                  0.735130D+00           0.281110D+00
            S    1   1.00
                  0.231670D+00           0.100000D+01
            S    1   1.00
                  0.741470D-01           0.100000D+01
            P    1   1.00
                  0.160000D+01           0.100000D+01
            P    1   1.00
                  0.450000D+00           0.100000D+01
            D    1   1.00
                  0.125000D+01           0.100000D+01
            ****
            -C     0
            S    7   1.00
                  0.785710D+04           0.568250D-03
                  0.117870D+04           0.439150D-02
                  0.268320D+03           0.225040D-01
                  0.759480D+02           0.866530D-01
                  0.245590D+02           0.244050D+00
                  0.862120D+01           0.441480D+00
                  0.312780D+01           0.353320D+00
            S    7   1.00
                  0.117870D+04          -0.594920D-06
                  0.268320D+03          -0.627480D-04
                  0.759480D+02          -0.757730D-03
                  0.245590D+02          -0.733080D-02
                  0.862120D+01          -0.389320D-01
                  0.312780D+01          -0.889080D-01
                  0.822020D+00           0.216890D+00
            S    1   1.00
                  0.330170D+00           0.100000D+01
            S    1   1.00
                  0.114630D+00           0.100000D+01
            P    4   1.00
                  0.337750D+02           0.602940D-02
                  0.767660D+01           0.432280D-01
                  0.223570D+01           0.163010D+00
                  0.764470D+00           0.365040D+00
            P    1   1.00
                  0.262320D+00           0.100000D+01
            P    1   1.00
                  0.846380D-01           0.100000D+01
            D    1   1.00
                  0.140000D+01           0.100000D+01
            D    1   1.00
                  0.450000D+00           0.100000D+01
            F    1   1.00
                  0.950000D+00           0.100000D+01
            ****
            -N     0
            S    7   1.00
                  0.111010D+05           0.545700D-03
                  0.166530D+04           0.421810D-02
                  0.379080D+03           0.216450D-01
                  0.107300D+03           0.837760D-01
                  0.347470D+02           0.238810D+00
                  0.122490D+02           0.439940D+00
                  0.447430D+01           0.363640D+00
            S    7   1.00
                  0.166530D+04          -0.150060D-05
                  0.379080D+03          -0.587530D-04
                  0.107300D+03          -0.774530D-03
                  0.347470D+02          -0.721610D-02
                  0.122490D+02          -0.393380D-01
                  0.447430D+01          -0.906110D-01
                  0.124040D+01           0.198820D+00
            S    1   1.00
                  0.487430D+00           0.100000D+01
            S    1   1.00
                  0.164840D+00           0.100000D+01
            P    4   1.00
                  0.479340D+02           0.617060D-02
                  0.109990D+02           0.442600D-01
                  0.324720D+01           0.168250D+00
                  0.111140D+01           0.368480D+00
            P    1   1.00
                  0.379880D+00           0.100000D+01
            P    1   1.00
                  0.120680D+00           0.100000D+01
            D    1   1.00
                  0.180000D+01           0.100000D+01
            D    1   1.00
                  0.550000D+00           0.100000D+01
            F    1   1.00
                  0.102000D+01           0.100000D+01
            ****
            -O     0
            S    7   1.00
                  0.147820D+05           0.535190D-03
                  0.221730D+04           0.413750D-02
                  0.504740D+03           0.212450D-01
                  0.142870D+03           0.824530D-01
                  0.463000D+02           0.236710D+00
                  0.163370D+02           0.440390D+00
                  0.598280D+01           0.364650D+00
            S    7   1.00
                  0.221730D+04          -0.192750D-05
                  0.504740D+03          -0.579640D-04
                  0.142870D+03          -0.794940D-03
                  0.463000D+02          -0.731250D-02
                  0.163370D+02          -0.405740D-01
                  0.598280D+01          -0.915940D-01
                  0.167180D+01           0.209400D+00
            S    1   1.00
                  0.646620D+00           0.100000D+01
            S    1   1.00
                  0.216690D+00           0.100000D+01
            P    4   1.00
                  0.604240D+02           0.689490D-02
                  0.139350D+02           0.490050D-01
                  0.415310D+01           0.182550D+00
                  0.141580D+01           0.376330D+00
            P    1   1.00
                  0.475490D+00           0.100000D+01
            P    1   1.00
                  0.145290D+00           0.100000D+01
            D    1   1.00
                  0.220000D+01           0.100000D+01
            D    1   1.00
                  0.650000D+00           0.100000D+01
            F    1   1.00
                  0.110000D+01           0.100000D+01
            ****
 Initial command:
 /public3/home/sc51754/softwares/g09e01/l1.exe "./Gau-45081.inp" -scrdir="./"
 Entering Link 1 = /public3/home/sc51754/softwares/g09e01/l1.exe PID=     45083.
  
 Copyright (c) 1988,1990,1992,1993,1995,1998,2003,2009,2015,
            Gaussian, Inc.  All Rights Reserved.
  
 This is part of the Gaussian(R) 09 program.  It is based on
 the Gaussian(R) 03 system (copyright 2003, Gaussian, Inc.),
 the Gaussian(R) 98 system (copyright 1998, Gaussian, Inc.),
 the Gaussian(R) 94 system (copyright 1995, Gaussian, Inc.),
 the Gaussian 92(TM) system (copyright 1992, Gaussian, Inc.),
 the Gaussian 90(TM) system (copyright 1990, Gaussian, Inc.),
 the Gaussian 88(TM) system (copyright 1988, Gaussian, Inc.),
 the Gaussian 86(TM) system (copyright 1986, Carnegie Mellon
 University), and the Gaussian 82(TM) system (copyright 1983,
 Carnegie Mellon University). Gaussian is a federally registered
 trademark of Gaussian, Inc.
  
 This software contains proprietary and confidential information,
 including trade secrets, belonging to Gaussian, Inc.
  
 This software is provided under written license and may be
 used, copied, transmitted, or stored only in accord with that
 written license.
  
 The following legend is applicable only to US Government
 contracts under FAR:
  
                    RESTRICTED RIGHTS LEGEND
  
 Use, reproduction and disclosure by the US Government is
 subject to restrictions as set forth in subparagraphs (a)
 and (c) of the Commercial Computer Software - Restricted
 Rights clause in FAR 52.227-19.
  
 Gaussian, Inc.
 340 Quinnipiac St., Bldg. 40, Wallingford CT 06492
  
  
 ---------------------------------------------------------------
 Warning -- This program may not be used in any manner that
 competes with the business of Gaussian, Inc. or will provide
 assistance to any competitor of Gaussian, Inc.  The licensee
 of this program is prohibited from giving any competitor of
 Gaussian, Inc. access to this program.  By using this program,
 the user acknowledges that Gaussian, Inc. is engaged in the
 business of creating and licensing software in the field of
 computational chemistry and represents and warrants to the
 licensee that it is not a competitor of Gaussian, Inc. and that
 it will not use this program in any manner prohibited above.
 ---------------------------------------------------------------
  

 Cite this work as:
 Gaussian 09, Revision E.01,
 M. J. Frisch, G. W. Trucks, H. B. Schlegel, G. E. Scuseria, 
 M. A. Robb, J. R. Cheeseman, G. Scalmani, V. Barone, B. Mennucci, 
 G. A. Petersson, H. Nakatsuji, M. Caricato, X. Li, H. P. Hratchian, 
 A. F. Izmaylov, J. Bloino, G. Zheng, J. L. Sonnenberg, M. Hada, 
 M. Ehara, K. Toyota, R. Fukuda, J. Hasegawa, M. Ishida, T. Nakajima, 
 Y. Honda, O. Kitao, H. Nakai, T. Vreven, J. A. Montgomery, Jr., 
 J. E. Peralta, F. Ogliaro, M. Bearpark, J. J. Heyd, E. Brothers, 
 K. N. Kudin, V. N. Staroverov, T. Keith, R. Kobayashi, J. Normand, 
 K. Raghavachari, A. Rendell, J. C. Burant, S. S. Iyengar, J. Tomasi, 
 M. Cossi, N. Rega, J. M. Millam, M. Klene, J. E. Knox, J. B. Cross, 
 V. Bakken, C. Adamo, J. Jaramillo, R. Gomperts, R. E. Stratmann, 
 O. Yazyev, A. J. Austin, R. Cammi, C. Pomelli, J. W. Ochterski, 
 R. L. Martin, K. Morokuma, V. G. Zakrzewski, G. A. Voth, 
 P. Salvador, J. J. Dannenberg, S. Dapprich, A. D. Daniels, 
 O. Farkas, J. B. Foresman, J. V. Ortiz, J. Cioslowski, 
 and D. J. Fox, Gaussian, Inc., Wallingford CT, 2013.
 
 ******************************************
 Gaussian 09:  EM64L-G09RevE.01 30-Nov-2015
                27-Aug-2021 
 ******************************************
 %nprocshared=64
 Will use up to   64 processors via shared memory.
 %mem=128GB
 %chk=4PY_BHandHLYP_PC2_OPT_FREQ.chk
 -------------------------
 #p opt freq BHandHLYP/gen
 -------------------------
 1/14=-1,18=20,19=15,26=3,38=1/1,3;
 2/9=110,12=2,17=6,18=5,40=1/2;
 3/5=7,11=2,16=1,25=1,30=1,71=1,74=-3/1,2,3;
 4//1;
 5/5=2,38=5/2;
 6/7=2,8=2,9=2,10=2,28=1/1;
 7//1,2,3,16;
 1/14=-1,18=20,19=15,26=3/3(2);
 2/9=110/2;
 99//99;
 2/9=110/2;
 3/5=7,6=1,11=2,16=1,25=1,30=1,71=1,74=-3,82=7/1,2,3;
 4/5=5,16=3,69=1/1;
 5/5=2,38=5/2;
 7//1,2,3,16;
 1/14=-1,18=20,19=15,26=3/3(-5);
 2/9=110/2;
 6/7=2,8=2,9=2,10=2,19=2,28=1/1;
 99/9=1/99;
 Leave Link    1 at Fri Aug 27 21:19:46 2021, MaxMem= 17179869184 cpu:         2.8
 (Enter /public3/home/sc51754/softwares/g09e01/l101.exe)
 --------------------------
 4PY_BHandHLYP_PC2_OPT_FREQ
 --------------------------
 Symbolic Z-matrix:
 Charge =  0 Multiplicity = 1
 C                    -0.00018  -1.04887   1.19382 
 C                    -0.00018   0.30655   1.22857 
 C                     0.00022   1.11152   0. 
 C                    -0.00018   0.30655  -1.22857 
 C                    -0.00018  -1.04887  -1.19382 
 N                     0.00002  -1.72968   0. 
 H                    -0.00063  -1.66693   2.08522 
 H                    -0.00059   0.82774   2.17893 
 H                    -0.00059   0.82774  -2.17893 
 H                    -0.00063  -1.66693  -2.08522 
 O                     0.0006    2.34525   0. 
 H                     0.00063  -2.73716   0. 
 
 NAtoms=     12 NQM=       12 NQMF=       0 NMMI=      0 NMMIF=      0
                NMic=       0 NMicF=      0.
                    Isotopes and Nuclear Properties:
 (Nuclear quadrupole moments (NQMom) in fm**2, nuclear magnetic moments (NMagM)
  in nuclear magnetons)

  Atom         1           2           3           4           5           6           7           8           9          10
 IAtWgt=          12          12          12          12          12          14           1           1           1           1
 AtmWgt=  12.0000000  12.0000000  12.0000000  12.0000000  12.0000000  14.0030740   1.0078250   1.0078250   1.0078250   1.0078250
 NucSpn=           0           0           0           0           0           2           1           1           1           1
 AtZEff=   0.0000000   0.0000000   0.0000000   0.0000000   0.0000000   0.0000000   0.0000000   0.0000000   0.0000000   0.0000000
 NQMom=    0.0000000   0.0000000   0.0000000   0.0000000   0.0000000   2.0440000   0.0000000   0.0000000   0.0000000   0.0000000
 NMagM=    0.0000000   0.0000000   0.0000000   0.0000000   0.0000000   0.4037610   2.7928460   2.7928460   2.7928460   2.7928460
 AtZNuc=   6.0000000   6.0000000   6.0000000   6.0000000   6.0000000   7.0000000   1.0000000   1.0000000   1.0000000   1.0000000

  Atom        11          12
 IAtWgt=          16           1
 AtmWgt=  15.9949146   1.0078250
 NucSpn=           0           1
 AtZEff=   0.0000000   0.0000000
 NQMom=    0.0000000   0.0000000
 NMagM=    0.0000000   2.7928460
 AtZNuc=   8.0000000   1.0000000
 Leave Link  101 at Fri Aug 27 21:19:46 2021, MaxMem= 17179869184 cpu:         8.1
 (Enter /public3/home/sc51754/softwares/g09e01/l103.exe)

 GradGradGradGradGradGradGradGradGradGradGradGradGradGradGradGradGradGrad
 Berny optimization.
 Initialization pass.
                           ----------------------------
                           !    Initial Parameters    !
                           ! (Angstroms and Degrees)  !
 --------------------------                            --------------------------
 ! Name  Definition              Value          Derivative Info.                !
 --------------------------------------------------------------------------------
 ! R1    R(1,2)                  1.3559         estimate D2E/DX2                !
 ! R2    R(1,6)                  1.3743         estimate D2E/DX2                !
 ! R3    R(1,7)                  1.0847         estimate D2E/DX2                !
 ! R4    R(2,3)                  1.4688         estimate D2E/DX2                !
 ! R5    R(2,8)                  1.0839         estimate D2E/DX2                !
 ! R6    R(3,4)                  1.4688         estimate D2E/DX2                !
 ! R7    R(3,11)                 1.2337         estimate D2E/DX2                !
 ! R8    R(4,5)                  1.3559         estimate D2E/DX2                !
 ! R9    R(4,9)                  1.0839         estimate D2E/DX2                !
 ! R10   R(5,6)                  1.3743         estimate D2E/DX2                !
 ! R11   R(5,10)                 1.0847         estimate D2E/DX2                !
 ! R12   R(6,12)                 1.0075         estimate D2E/DX2                !
 ! A1    A(2,1,6)              121.1639         estimate D2E/DX2                !
 ! A2    A(2,1,7)              123.267          estimate D2E/DX2                !
 ! A3    A(6,1,7)              115.5691         estimate D2E/DX2                !
 ! A4    A(1,2,3)              121.7645         estimate D2E/DX2                !
 ! A5    A(1,2,8)              120.2096         estimate D2E/DX2                !
 ! A6    A(3,2,8)              118.0259         estimate D2E/DX2                !
 ! A7    A(2,3,4)              113.5338         estimate D2E/DX2                !
 ! A8    A(2,3,11)             123.2331         estimate D2E/DX2                !
 ! A9    A(4,3,11)             123.2331         estimate D2E/DX2                !
 ! A10   A(3,4,5)              121.7645         estimate D2E/DX2                !
 ! A11   A(3,4,9)              118.0259         estimate D2E/DX2                !
 ! A12   A(5,4,9)              120.2096         estimate D2E/DX2                !
 ! A13   A(4,5,6)              121.1639         estimate D2E/DX2                !
 ! A14   A(4,5,10)             123.267          estimate D2E/DX2                !
 ! A15   A(6,5,10)             115.5691         estimate D2E/DX2                !
 ! A16   A(1,6,5)              120.6094         estimate D2E/DX2                !
 ! A17   A(1,6,12)             119.6953         estimate D2E/DX2                !
 ! A18   A(5,6,12)             119.6953         estimate D2E/DX2                !
 ! D1    D(6,1,2,3)             -0.0087         estimate D2E/DX2                !
 ! D2    D(6,1,2,8)            179.9852         estimate D2E/DX2                !
 ! D3    D(7,1,2,3)           -179.9904         estimate D2E/DX2                !
 ! D4    D(7,1,2,8)              0.0035         estimate D2E/DX2                !
 ! D5    D(2,1,6,5)             -0.0199         estimate D2E/DX2                !
 ! D6    D(2,1,6,12)           179.9596         estimate D2E/DX2                !
 ! D7    D(7,1,6,5)            179.9631         estimate D2E/DX2                !
 ! D8    D(7,1,6,12)            -0.0574         estimate D2E/DX2                !
 ! D9    D(1,2,3,4)              0.0339         estimate D2E/DX2                !
 ! D10   D(1,2,3,11)          -179.9797         estimate D2E/DX2                !
 ! D11   D(8,2,3,4)           -179.9602         estimate D2E/DX2                !
 ! D12   D(8,2,3,11)             0.0262         estimate D2E/DX2                !
 ! D13   D(2,3,4,5)             -0.0339         estimate D2E/DX2                !
 ! D14   D(2,3,4,9)            179.9602         estimate D2E/DX2                !
 ! D15   D(11,3,4,5)           179.9797         estimate D2E/DX2                !
 ! D16   D(11,3,4,9)            -0.0262         estimate D2E/DX2                !
 ! D17   D(3,4,5,6)              0.0087         estimate D2E/DX2                !
 ! D18   D(3,4,5,10)           179.9904         estimate D2E/DX2                !
 ! D19   D(9,4,5,6)           -179.9852         estimate D2E/DX2                !
 ! D20   D(9,4,5,10)            -0.0035         estimate D2E/DX2                !
 ! D21   D(4,5,6,1)              0.0199         estimate D2E/DX2                !
 ! D22   D(4,5,6,12)          -179.9596         estimate D2E/DX2                !
 ! D23   D(10,5,6,1)          -179.9631         estimate D2E/DX2                !
 ! D24   D(10,5,6,12)            0.0574         estimate D2E/DX2                !
 --------------------------------------------------------------------------------
 Trust Radius=3.00D-01 FncErr=1.00D-07 GrdErr=1.00D-06
 Number of steps in this run=     64 maximum allowed number of steps=    100.
 GradGradGradGradGradGradGradGradGradGradGradGradGradGradGradGradGradGrad

 Leave Link  103 at Fri Aug 27 21:19:46 2021, MaxMem= 17179869184 cpu:         0.2
 (Enter /public3/home/sc51754/softwares/g09e01/l202.exe)
                          Input orientation:                          
 ---------------------------------------------------------------------
 Center     Atomic      Atomic             Coordinates (Angstroms)
 Number     Number       Type             X           Y           Z
 ---------------------------------------------------------------------
      1          6           0       -0.000184   -1.048866    1.193818
      2          6           0       -0.000184    0.306549    1.228568
      3          6           0        0.000221    1.111516    0.000000
      4          6           0       -0.000184    0.306549   -1.228568
      5          6           0       -0.000184   -1.048866   -1.193818
      6          7           0        0.000018   -1.729678    0.000000
      7          1           0       -0.000630   -1.666925    2.085223
      8          1           0       -0.000587    0.827738    2.178925
      9          1           0       -0.000587    0.827738   -2.178925
     10          1           0       -0.000630   -1.666925   -2.085223
     11          8           0        0.000597    2.345248    0.000000
     12          1           0        0.000630   -2.737158    0.000000
 ---------------------------------------------------------------------
                    Distance matrix (angstroms):
                    1          2          3          4          5
     1  C    0.000000
     2  C    1.355860   0.000000
     3  C    2.468289   1.468792   0.000000
     4  C    2.775807   2.457136   1.468792   0.000000
     5  C    2.387636   2.775807   2.468289   1.355860   0.000000
     6  N    1.374302   2.378150   2.841194   2.378150   1.374302
     7  H    1.084712   2.151385   3.473887   3.856917   3.336781
     8  H    2.119452   1.083890   2.197327   3.447122   3.859668
     9  H    3.859668   3.447122   2.197327   1.083890   2.119452
    10  H    3.336781   3.856917   3.473887   2.151385   1.084712
    11  O    3.597946   2.380268   1.233732   2.380268   3.597946
    12  H    2.067736   3.282306   3.848674   3.282306   2.067736
                    6          7          8          9         10
     6  N    0.000000
     7  H    2.086167   0.000000
     8  H    3.359775   2.496422   0.000000
     9  H    3.359775   4.940273   4.357850   0.000000
    10  H    2.086167   4.170446   4.940273   2.496422   0.000000
    11  O    4.074926   4.521691   2.655288   2.655288   4.521691
    12  H    1.007480   2.343833   4.178062   4.178062   2.343833
                   11         12
    11  O    0.000000
    12  H    5.082406   0.000000
 Stoichiometry    C5H5NO
 Framework group  CS[SG(CHNO),X(C4H4)]
 Deg. of freedom    17
 Full point group                 CS      NOp   2
 Largest Abelian subgroup         CS      NOp   2
 Largest concise Abelian subgroup CS      NOp   2
                         Standard orientation:                         
 ---------------------------------------------------------------------
 Center     Atomic      Atomic             Coordinates (Angstroms)
 Number     Number       Type             X           Y           Z
 ---------------------------------------------------------------------
      1          6           0        0.000184    1.048866    1.193818
      2          6           0        0.000184   -0.306549    1.228568
      3          6           0       -0.000221   -1.111516   -0.000000
      4          6           0        0.000184   -0.306549   -1.228568
      5          6           0        0.000184    1.048866   -1.193818
      6          7           0       -0.000018    1.729678    0.000000
      7          1           0        0.000630    1.666925    2.085223
      8          1           0        0.000587   -0.827738    2.178925
      9          1           0        0.000587   -0.827738   -2.178925
     10          1           0        0.000630    1.666925   -2.085223
     11          8           0       -0.000597   -2.345248   -0.000000
     12          1           0       -0.000630    2.737158    0.000000
 ---------------------------------------------------------------------
 Rotational constants (GHZ):      5.6935111      2.6926956      1.8281082
 Leave Link  202 at Fri Aug 27 21:19:46 2021, MaxMem= 17179869184 cpu:         5.0
 (Enter /public3/home/sc51754/softwares/g09e01/l301.exe)
 General basis read from cards:  (5D, 7F)
 Centers:       7      8      9     10     12
 S 4 1.00
     Exponent=  7.5423000000D+01 Coefficients=  2.4065000000D-03
     Exponent=  1.1350000000D+01 Coefficients=  1.8487000000D-02
     Exponent=  2.5993000000D+00 Coefficients=  8.9742000000D-02
     Exponent=  7.3513000000D-01 Coefficients=  2.8111000000D-01
 S 1 1.00
     Exponent=  2.3167000000D-01 Coefficients=  1.0000000000D+00
 S 1 1.00
     Exponent=  7.4147000000D-02 Coefficients=  1.0000000000D+00
 P 1 1.00
     Exponent=  1.6000000000D+00 Coefficients=  1.0000000000D+00
 P 1 1.00
     Exponent=  4.5000000000D-01 Coefficients=  1.0000000000D+00
 D 1 1.00
     Exponent=  1.2500000000D+00 Coefficients=  1.0000000000D+00
 ****
 Centers:       1      2      3      4      5
 S 7 1.00
     Exponent=  7.8571000000D+03 Coefficients=  5.6825000000D-04
     Exponent=  1.1787000000D+03 Coefficients=  4.3915000000D-03
     Exponent=  2.6832000000D+02 Coefficients=  2.2504000000D-02
     Exponent=  7.5948000000D+01 Coefficients=  8.6653000000D-02
     Exponent=  2.4559000000D+01 Coefficients=  2.4405000000D-01
     Exponent=  8.6212000000D+00 Coefficients=  4.4148000000D-01
     Exponent=  3.1278000000D+00 Coefficients=  3.5332000000D-01
 S 7 1.00
     Exponent=  1.1787000000D+03 Coefficients= -5.9492000000D-07
     Exponent=  2.6832000000D+02 Coefficients= -6.2748000000D-05
     Exponent=  7.5948000000D+01 Coefficients= -7.5773000000D-04
     Exponent=  2.4559000000D+01 Coefficients= -7.3308000000D-03
     Exponent=  8.6212000000D+00 Coefficients= -3.8932000000D-02
     Exponent=  3.1278000000D+00 Coefficients= -8.8908000000D-02
     Exponent=  8.2202000000D-01 Coefficients=  2.1689000000D-01
 S 1 1.00
     Exponent=  3.3017000000D-01 Coefficients=  1.0000000000D+00
 S 1 1.00
     Exponent=  1.1463000000D-01 Coefficients=  1.0000000000D+00
 P 4 1.00
     Exponent=  3.3775000000D+01 Coefficients=  6.0294000000D-03
     Exponent=  7.6766000000D+00 Coefficients=  4.3228000000D-02
     Exponent=  2.2357000000D+00 Coefficients=  1.6301000000D-01
     Exponent=  7.6447000000D-01 Coefficients=  3.6504000000D-01
 P 1 1.00
     Exponent=  2.6232000000D-01 Coefficients=  1.0000000000D+00
 P 1 1.00
     Exponent=  8.4638000000D-02 Coefficients=  1.0000000000D+00
 D 1 1.00
     Exponent=  1.4000000000D+00 Coefficients=  1.0000000000D+00
 D 1 1.00
     Exponent=  4.5000000000D-01 Coefficients=  1.0000000000D+00
 F 1 1.00
     Exponent=  9.5000000000D-01 Coefficients=  1.0000000000D+00
 ****
 Centers:       6
 S 7 1.00
     Exponent=  1.1101000000D+04 Coefficients=  5.4570000000D-04
     Exponent=  1.6653000000D+03 Coefficients=  4.2181000000D-03
     Exponent=  3.7908000000D+02 Coefficients=  2.1645000000D-02
     Exponent=  1.0730000000D+02 Coefficients=  8.3776000000D-02
     Exponent=  3.4747000000D+01 Coefficients=  2.3881000000D-01
     Exponent=  1.2249000000D+01 Coefficients=  4.3994000000D-01
     Exponent=  4.4743000000D+00 Coefficients=  3.6364000000D-01
 S 7 1.00
     Exponent=  1.6653000000D+03 Coefficients= -1.5006000000D-06
     Exponent=  3.7908000000D+02 Coefficients= -5.8753000000D-05
     Exponent=  1.0730000000D+02 Coefficients= -7.7453000000D-04
     Exponent=  3.4747000000D+01 Coefficients= -7.2161000000D-03
     Exponent=  1.2249000000D+01 Coefficients= -3.9338000000D-02
     Exponent=  4.4743000000D+00 Coefficients= -9.0611000000D-02
     Exponent=  1.2404000000D+00 Coefficients=  1.9882000000D-01
 S 1 1.00
     Exponent=  4.8743000000D-01 Coefficients=  1.0000000000D+00
 S 1 1.00
     Exponent=  1.6484000000D-01 Coefficients=  1.0000000000D+00
 P 4 1.00
     Exponent=  4.7934000000D+01 Coefficients=  6.1706000000D-03
     Exponent=  1.0999000000D+01 Coefficients=  4.4260000000D-02
     Exponent=  3.2472000000D+00 Coefficients=  1.6825000000D-01
     Exponent=  1.1114000000D+00 Coefficients=  3.6848000000D-01
 P 1 1.00
     Exponent=  3.7988000000D-01 Coefficients=  1.0000000000D+00
 P 1 1.00
     Exponent=  1.2068000000D-01 Coefficients=  1.0000000000D+00
 D 1 1.00
     Exponent=  1.8000000000D+00 Coefficients=  1.0000000000D+00
 D 1 1.00
     Exponent=  5.5000000000D-01 Coefficients=  1.0000000000D+00
 F 1 1.00
     Exponent=  1.0200000000D+00 Coefficients=  1.0000000000D+00
 ****
 Centers:      11
 S 7 1.00
     Exponent=  1.4782000000D+04 Coefficients=  5.3519000000D-04
     Exponent=  2.2173000000D+03 Coefficients=  4.1375000000D-03
     Exponent=  5.0474000000D+02 Coefficients=  2.1245000000D-02
     Exponent=  1.4287000000D+02 Coefficients=  8.2453000000D-02
     Exponent=  4.6300000000D+01 Coefficients=  2.3671000000D-01
     Exponent=  1.6337000000D+01 Coefficients=  4.4039000000D-01
     Exponent=  5.9828000000D+00 Coefficients=  3.6465000000D-01
 S 7 1.00
     Exponent=  2.2173000000D+03 Coefficients= -1.9275000000D-06
     Exponent=  5.0474000000D+02 Coefficients= -5.7964000000D-05
     Exponent=  1.4287000000D+02 Coefficients= -7.9494000000D-04
     Exponent=  4.6300000000D+01 Coefficients= -7.3125000000D-03
     Exponent=  1.6337000000D+01 Coefficients= -4.0574000000D-02
     Exponent=  5.9828000000D+00 Coefficients= -9.1594000000D-02
     Exponent=  1.6718000000D+00 Coefficients=  2.0940000000D-01
 S 1 1.00
     Exponent=  6.4662000000D-01 Coefficients=  1.0000000000D+00
 S 1 1.00
     Exponent=  2.1669000000D-01 Coefficients=  1.0000000000D+00
 P 4 1.00
     Exponent=  6.0424000000D+01 Coefficients=  6.8949000000D-03
     Exponent=  1.3935000000D+01 Coefficients=  4.9005000000D-02
     Exponent=  4.1531000000D+00 Coefficients=  1.8255000000D-01
     Exponent=  1.4158000000D+00 Coefficients=  3.7633000000D-01
 P 1 1.00
     Exponent=  4.7549000000D-01 Coefficients=  1.0000000000D+00
 P 1 1.00
     Exponent=  1.4529000000D-01 Coefficients=  1.0000000000D+00
 D 1 1.00
     Exponent=  2.2000000000D+00 Coefficients=  1.0000000000D+00
 D 1 1.00
     Exponent=  6.5000000000D-01 Coefficients=  1.0000000000D+00
 F 1 1.00
     Exponent=  1.1000000000D+00 Coefficients=  1.0000000000D+00
 ****
 Ernie: Thresh=  0.10000D-02 Tol=  0.10000D-05 Strict=F.
 Ernie:  7 primitive shells out of 220 were deleted.
 There are   183 symmetry adapted cartesian basis functions of A'  symmetry.
 There are   137 symmetry adapted cartesian basis functions of A"  symmetry.
 There are   158 symmetry adapted basis functions of A'  symmetry.
 There are   122 symmetry adapted basis functions of A"  symmetry.
   280 basis functions,   475 primitive gaussians,   320 cartesian basis functions
    25 alpha electrons       25 beta electrons
       nuclear repulsion energy       273.2804388411 Hartrees.
 IExCor=  402 DFT=T Ex+Corr=BHandHLYP ExCW=0 ScaHFX=  0.500000
 ScaDFX=  0.500000  0.500000  1.000000  1.000000 ScalE2=  1.000000  1.000000
 IRadAn=      0 IRanWt=     -1 IRanGd=            0 ICorTp=0 IEmpDi=  4
 NAtoms=   12 NActive=   12 NUniq=    8 SFac= 2.25D+00 NAtFMM=   60 NAOKFM=F Big=F
 Integral buffers will be    131072 words long.
 Raffenetti 2 integral format.
 Two-electron integral symmetry is turned on.
 Leave Link  301 at Fri Aug 27 21:19:46 2021, MaxMem= 17179869184 cpu:         1.4
 (Enter /public3/home/sc51754/softwares/g09e01/l302.exe)
 NPDir=0 NMtPBC=     1 NCelOv=     1 NCel=       1 NClECP=     1 NCelD=      1
         NCelK=      1 NCelE2=     1 NClLst=     1 CellRange=     0.0.
 One-electron integrals computed using PRISM.
 One-electron integral symmetry used in STVInt
 NBasis=   280 RedAO= T EigKep=  1.83D-04  NBF=   158   122
 NBsUse=   280 1.00D-06 EigRej= -1.00D+00 NBFU=   158   122
 Precomputing XC quadrature grid using
 IXCGrd= 4 IRadAn=           0 IRanWt=          -1 IRanGd=           0 AccXCQ= 0.00D+00.
 Generated NRdTot=       0 NPtTot=           0 NUsed=           0 NTot=          32
 NSgBfM=   320   320   320   320   320 MxSgAt=    12 MxSgA2=    12.
 Leave Link  302 at Fri Aug 27 21:19:47 2021, MaxMem= 17179869184 cpu:        44.5
 (Enter /public3/home/sc51754/softwares/g09e01/l303.exe)
 DipDrv:  MaxL=1.
 Leave Link  303 at Fri Aug 27 21:19:48 2021, MaxMem= 17179869184 cpu:        15.8
 (Enter /public3/home/sc51754/softwares/g09e01/l401.exe)
 ExpMin= 7.41D-02 ExpMax= 1.48D+04 ExpMxC= 5.05D+02 IAcc=2 IRadAn=         4 AccDes= 0.00D+00
 Harris functional with IExCor=  402 and IRadAn=       4 diagonalized for initial guess.
 HarFok:  IExCor=  402 AccDes= 0.00D+00 IRadAn=         4 IDoV= 1 UseB2=F ITyADJ=14
 ICtDFT=  3500011 ScaDFX=  1.000000  1.000000  1.000000  1.000000
 FoFCou: FMM=F IPFlag=           0 FMFlag=      100000 FMFlg1=           0
         NFxFlg=           0 DoJE=T BraDBF=F KetDBF=T FulRan=T
         wScrn=  0.000000 ICntrl=     500 IOpCl=  0 I1Cent=   200000004 NGrid=           0
         NMat0=    1 NMatS0=      1 NMatT0=    0 NMatD0=    1 NMtDS0=    0 NMtDT0=    0
 Petite list used in FoFCou.
 Harris En= -323.685892630574    
 JPrj=0 DoOrth=F DoCkMO=F.
 Initial guess orbital symmetries:
       Occupied  (A') (A') (A") (A') (A") (A') (A') (A') (A') (A')
                 (A") (A") (A') (A') (A") (A') (A') (A") (A') (A')
                 (A") (A') (A") (A") (A')
       Virtual   (A') (A") (A') (A') (A") (A') (A') (A") (A') (A')
                 (A") (A') (A') (A") (A") (A") (A') (A') (A") (A')
                 (A") (A') (A") (A') (A') (A') (A") (A') (A") (A')
                 (A') (A") (A') (A') (A') (A") (A') (A") (A") (A')
                 (A") (A') (A') (A') (A") (A") (A') (A") (A") (A')
                 (A') (A") (A") (A') (A') (A') (A') (A") (A') (A')
                 (A') (A') (A") (A") (A') (A") (A') (A') (A") (A")
                 (A') (A") (A") (A') (A") (A') (A') (A") (A') (A")
                 (A') (A') (A") (A") (A') (A') (A') (A') (A") (A')
                 (A") (A") (A') (A") (A") (A') (A') (A") (A') (A')
                 (A") (A') (A") (A") (A') (A") (A') (A') (A") (A')
                 (A') (A") (A') (A") (A") (A') (A') (A') (A") (A")
                 (A") (A') (A") (A') (A') (A") (A') (A") (A') (A")
                 (A') (A") (A') (A") (A') (A') (A') (A") (A') (A')
                 (A") (A") (A") (A') (A") (A') (A') (A') (A') (A")
                 (A') (A') (A") (A') (A") (A") (A') (A") (A") (A')
                 (A') (A") (A') (A") (A') (A') (A") (A") (A") (A")
                 (A') (A') (A") (A') (A") (A') (A") (A') (A') (A')
                 (A") (A') (A") (A') (A") (A') (A") (A') (A') (A")
                 (A") (A") (A') (A') (A") (A') (A") (A') (A") (A')
                 (A') (A') (A') (A") (A") (A") (A") (A') (A') (A')
                 (A') (A') (A") (A") (A") (A') (A") (A') (A") (A')
                 (A') (A") (A") (A') (A") (A") (A') (A") (A') (A")
                 (A') (A') (A") (A') (A') (A') (A") (A") (A") (A')
                 (A') (A') (A") (A') (A") (A') (A') (A") (A') (A')
                 (A") (A') (A") (A') (A')
 The electronic state of the initial guess is 1-A'.
 Leave Link  401 at Fri Aug 27 21:19:49 2021, MaxMem= 17179869184 cpu:        45.0
 (Enter /public3/home/sc51754/softwares/g09e01/l502.exe)
 Closed shell SCF:
 Using DIIS extrapolation, IDIIS=  1040.
 Integral symmetry usage will be decided dynamically.
 Keep R1 ints in memory in symmetry-blocked form, NReq=1161351758.
 IVT=      348938 IEndB=      348938 NGot= 17179869184 MDV= 16792355177
 LenX= 16792355177 LenY= 16792252336
 Requested convergence on RMS density matrix=1.00D-08 within 128 cycles.
 Requested convergence on MAX density matrix=1.00D-06.
 Requested convergence on             energy=1.00D-06.
 No special actions if energy rises.
 FoFCou: FMM=F IPFlag=           0 FMFlag=           0 FMFlg1=           0
         NFxFlg=           0 DoJE=F BraDBF=F KetDBF=F FulRan=T
         wScrn=  0.000000 ICntrl=     600 IOpCl=  0 I1Cent=           0 NGrid=           0
         NMat0=    1 NMatS0=  39340 NMatT0=    0 NMatD0=    1 NMtDS0=    0 NMtDT0=    0
 Petite list used in FoFCou.
 Integral accuracy reduced to 1.0D-05 until final iterations.

 Cycle   1  Pass 0  IDiag  1:
 E= -323.201424181915    
 DIIS: error= 3.26D-02 at cycle   1 NSaved=   1.
 NSaved= 1 IEnMin= 1 EnMin= -323.201424181915     IErMin= 1 ErrMin= 3.26D-02
 ErrMax= 3.26D-02  0.00D+00 EMaxC= 1.00D-01 BMatC= 2.84D-01 BMatP= 2.84D-01
 IDIUse=3 WtCom= 6.74D-01 WtEn= 3.26D-01
 Coeff-Com:  0.100D+01
 Coeff-En:   0.100D+01
 Coeff:      0.100D+01
 Gap=     0.172 Goal=   None    Shift=    0.000
 GapD=    0.172 DampG=1.000 DampE=0.500 DampFc=0.5000 IDamp=-1.
 Damping current iteration by 5.00D-01
 RMSDP=4.42D-03 MaxDP=1.76D-01              OVMax= 3.76D-01

 Cycle   2  Pass 0  IDiag  1:
 E= -323.300437556523     Delta-E=       -0.099013374608 Rises=F Damp=T
 DIIS: error= 1.16D-02 at cycle   2 NSaved=   2.
 NSaved= 2 IEnMin= 2 EnMin= -323.300437556523     IErMin= 2 ErrMin= 1.16D-02
 ErrMax= 1.16D-02  0.00D+00 EMaxC= 1.00D-01 BMatC= 3.31D-02 BMatP= 2.84D-01
 IDIUse=3 WtCom= 8.84D-01 WtEn= 1.16D-01
 Coeff-Com:  0.363D-01 0.964D+00
 Coeff-En:   0.952D-01 0.905D+00
 Coeff:      0.431D-01 0.957D+00
 Gap=     0.306 Goal=   None    Shift=    0.000
 RMSDP=1.55D-03 MaxDP=6.89D-02 DE=-9.90D-02 OVMax= 2.45D-01

 Cycle   3  Pass 0  IDiag  1:
 E= -323.418770642235     Delta-E=       -0.118333085712 Rises=F Damp=F
 DIIS: error= 1.12D-02 at cycle   3 NSaved=   3.
 NSaved= 3 IEnMin= 3 EnMin= -323.418770642235     IErMin= 3 ErrMin= 1.12D-02
 ErrMax= 1.12D-02  0.00D+00 EMaxC= 1.00D-01 BMatC= 2.55D-02 BMatP= 3.31D-02
 IDIUse=3 WtCom= 8.88D-01 WtEn= 1.12D-01
 Coeff-Com: -0.886D-01 0.494D+00 0.594D+00
 Coeff-En:   0.000D+00 0.000D+00 0.100D+01
 Coeff:     -0.787D-01 0.439D+00 0.640D+00
 Gap=     0.289 Goal=   None    Shift=    0.000
 RMSDP=5.39D-04 MaxDP=2.64D-02 DE=-1.18D-01 OVMax= 9.26D-02

 Cycle   4  Pass 0  IDiag  1:
 E= -323.438207946108     Delta-E=       -0.019437303873 Rises=F Damp=F
 DIIS: error= 3.89D-03 at cycle   4 NSaved=   4.
 NSaved= 4 IEnMin= 4 EnMin= -323.438207946108     IErMin= 4 ErrMin= 3.89D-03
 ErrMax= 3.89D-03  0.00D+00 EMaxC= 1.00D-01 BMatC= 3.41D-03 BMatP= 2.55D-02
 IDIUse=3 WtCom= 9.61D-01 WtEn= 3.89D-02
 Coeff-Com: -0.309D-01 0.580D-01 0.302D+00 0.671D+00
 Coeff-En:   0.000D+00 0.000D+00 0.862D-01 0.914D+00
 Coeff:     -0.297D-01 0.558D-01 0.294D+00 0.680D+00
 Gap=     0.289 Goal=   None    Shift=    0.000
 RMSDP=1.89D-04 MaxDP=5.53D-03 DE=-1.94D-02 OVMax= 1.53D-02

 Cycle   5  Pass 0  IDiag  1:
 E= -323.441204409371     Delta-E=       -0.002996463263 Rises=F Damp=F
 DIIS: error= 4.17D-04 at cycle   5 NSaved=   5.
 NSaved= 5 IEnMin= 5 EnMin= -323.441204409371     IErMin= 5 ErrMin= 4.17D-04
 ErrMax= 4.17D-04  0.00D+00 EMaxC= 1.00D-01 BMatC= 5.79D-05 BMatP= 3.41D-03
 IDIUse=3 WtCom= 9.96D-01 WtEn= 4.17D-03
 Coeff-Com: -0.492D-02-0.520D-02 0.508D-01 0.189D+00 0.770D+00
 Coeff-En:   0.000D+00 0.000D+00 0.000D+00 0.000D+00 0.100D+01
 Coeff:     -0.490D-02-0.518D-02 0.506D-01 0.188D+00 0.771D+00
 Gap=     0.287 Goal=   None    Shift=    0.000
 RMSDP=3.35D-05 MaxDP=1.10D-03 DE=-3.00D-03 OVMax= 3.71D-03

 Cycle   6  Pass 0  IDiag  1:
 E= -323.441258834989     Delta-E=       -0.000054425618 Rises=F Damp=F
 DIIS: error= 2.65D-04 at cycle   6 NSaved=   6.
 NSaved= 6 IEnMin= 6 EnMin= -323.441258834989     IErMin= 6 ErrMin= 2.65D-04
 ErrMax= 2.65D-04  0.00D+00 EMaxC= 1.00D-01 BMatC= 1.47D-05 BMatP= 5.79D-05
 IDIUse=3 WtCom= 9.97D-01 WtEn= 2.65D-03
 Coeff-Com:  0.318D-03-0.641D-02 0.301D-02 0.361D-01 0.360D+00 0.607D+00
 Coeff-En:   0.000D+00 0.000D+00 0.000D+00 0.000D+00 0.000D+00 0.100D+01
 Coeff:      0.318D-03-0.639D-02 0.300D-02 0.360D-01 0.359D+00 0.608D+00
 Gap=     0.287 Goal=   None    Shift=    0.000
 RMSDP=1.41D-05 MaxDP=4.71D-04 DE=-5.44D-05 OVMax= 2.21D-03

 Cycle   7  Pass 0  IDiag  1:
 E= -323.441274127451     Delta-E=       -0.000015292462 Rises=F Damp=F
 DIIS: error= 1.17D-04 at cycle   7 NSaved=   7.
 NSaved= 7 IEnMin= 7 EnMin= -323.441274127451     IErMin= 7 ErrMin= 1.17D-04
 ErrMax= 1.17D-04  0.00D+00 EMaxC= 1.00D-01 BMatC= 2.16D-06 BMatP= 1.47D-05
 IDIUse=3 WtCom= 9.99D-01 WtEn= 1.17D-03
 Coeff-Com:  0.153D-02-0.218D-02-0.934D-02-0.330D-01-0.473D-01 0.222D+00
 Coeff-Com:  0.868D+00
 Coeff-En:   0.000D+00 0.000D+00 0.000D+00 0.000D+00 0.000D+00 0.000D+00
 Coeff-En:   0.100D+01
 Coeff:      0.152D-02-0.218D-02-0.932D-02-0.329D-01-0.472D-01 0.222D+00
 Coeff:      0.869D+00
 Gap=     0.287 Goal=   None    Shift=    0.000
 RMSDP=8.49D-06 MaxDP=2.64D-04 DE=-1.53D-05 OVMax= 8.63D-04

 Initial convergence to 1.0D-05 achieved.  Increase integral accuracy.
 Cycle   8  Pass 1  IDiag  1:
 E= -323.441306795717     Delta-E=       -0.000032668266 Rises=F Damp=F
 DIIS: error= 4.13D-05 at cycle   1 NSaved=   1.
 NSaved= 1 IEnMin= 1 EnMin= -323.441306795717     IErMin= 1 ErrMin= 4.13D-05
 ErrMax= 4.13D-05  0.00D+00 EMaxC= 1.00D-01 BMatC= 3.42D-07 BMatP= 3.42D-07
 IDIUse=1 WtCom= 1.00D+00 WtEn= 0.00D+00
 Coeff-Com:  0.100D+01
 Coeff:      0.100D+01
 Gap=     0.288 Goal=   None    Shift=    0.000
 RMSDP=8.49D-06 MaxDP=2.64D-04 DE=-3.27D-05 OVMax= 3.14D-04

 Cycle   9  Pass 1  IDiag  1:
 E= -323.441306955257     Delta-E=       -0.000000159540 Rises=F Damp=F
 DIIS: error= 4.05D-05 at cycle   2 NSaved=   2.
 NSaved= 2 IEnMin= 2 EnMin= -323.441306955257     IErMin= 2 ErrMin= 4.05D-05
 ErrMax= 4.05D-05  0.00D+00 EMaxC= 1.00D-01 BMatC= 4.02D-07 BMatP= 3.42D-07
 IDIUse=1 WtCom= 1.00D+00 WtEn= 0.00D+00
 Coeff-Com:  0.523D+00 0.477D+00
 Coeff:      0.523D+00 0.477D+00
 Gap=     0.288 Goal=   None    Shift=    0.000
 RMSDP=1.63D-06 MaxDP=8.51D-05 DE=-1.60D-07 OVMax= 2.00D-04

 Cycle  10  Pass 1  IDiag  1:
 E= -323.441307270792     Delta-E=       -0.000000315535 Rises=F Damp=F
 DIIS: error= 1.14D-05 at cycle   3 NSaved=   3.
 NSaved= 3 IEnMin= 3 EnMin= -323.441307270792     IErMin= 3 ErrMin= 1.14D-05
 ErrMax= 1.14D-05  0.00D+00 EMaxC= 1.00D-01 BMatC= 1.78D-08 BMatP= 3.42D-07
 IDIUse=1 WtCom= 1.00D+00 WtEn= 0.00D+00
 Coeff-Com:  0.254D-01 0.133D+00 0.842D+00
 Coeff:      0.254D-01 0.133D+00 0.842D+00
 Gap=     0.288 Goal=   None    Shift=    0.000
 RMSDP=8.12D-07 MaxDP=2.60D-05 DE=-3.16D-07 OVMax= 5.86D-05

 Cycle  11  Pass 1  IDiag  1:
 E= -323.441307290197     Delta-E=       -0.000000019405 Rises=F Damp=F
 DIIS: error= 6.84D-06 at cycle   4 NSaved=   4.
 NSaved= 4 IEnMin= 4 EnMin= -323.441307290197     IErMin= 4 ErrMin= 6.84D-06
 ErrMax= 6.84D-06  0.00D+00 EMaxC= 1.00D-01 BMatC= 5.82D-09 BMatP= 1.78D-08
 IDIUse=1 WtCom= 1.00D+00 WtEn= 0.00D+00
 Coeff-Com: -0.812D-01-0.162D-01 0.433D+00 0.665D+00
 Coeff:     -0.812D-01-0.162D-01 0.433D+00 0.665D+00
 Gap=     0.288 Goal=   None    Shift=    0.000
 RMSDP=3.05D-07 MaxDP=1.61D-05 DE=-1.94D-08 OVMax= 6.06D-05

 Cycle  12  Pass 1  IDiag  1:
 E= -323.441307297789     Delta-E=       -0.000000007592 Rises=F Damp=F
 DIIS: error= 1.57D-06 at cycle   5 NSaved=   5.
 NSaved= 5 IEnMin= 5 EnMin= -323.441307297789     IErMin= 5 ErrMin= 1.57D-06
 ErrMax= 1.57D-06  0.00D+00 EMaxC= 1.00D-01 BMatC= 4.83D-10 BMatP= 5.82D-09
 IDIUse=1 WtCom= 1.00D+00 WtEn= 0.00D+00
 Coeff-Com: -0.543D-02-0.167D-01-0.122D+00 0.948D-01 0.105D+01
 Coeff:     -0.543D-02-0.167D-01-0.122D+00 0.948D-01 0.105D+01
 Gap=     0.288 Goal=   None    Shift=    0.000
 RMSDP=1.67D-07 MaxDP=5.20D-06 DE=-7.59D-09 OVMax= 1.79D-05

 Cycle  13  Pass 1  IDiag  1:
 E= -323.441307298487     Delta-E=       -0.000000000698 Rises=F Damp=F
 DIIS: error= 7.68D-07 at cycle   6 NSaved=   6.
 NSaved= 6 IEnMin= 6 EnMin= -323.441307298487     IErMin= 6 ErrMin= 7.68D-07
 ErrMax= 7.68D-07  0.00D+00 EMaxC= 1.00D-01 BMatC= 1.27D-10 BMatP= 4.83D-10
 IDIUse=1 WtCom= 1.00D+00 WtEn= 0.00D+00
 Coeff-Com:  0.671D-02-0.655D-02-0.117D+00-0.161D-01 0.589D+00 0.544D+00
 Coeff:      0.671D-02-0.655D-02-0.117D+00-0.161D-01 0.589D+00 0.544D+00
 Gap=     0.288 Goal=   None    Shift=    0.000
 RMSDP=3.74D-08 MaxDP=1.70D-06 DE=-6.98D-10 OVMax= 8.73D-06

 Cycle  14  Pass 1  IDiag  1:
 E= -323.441307298627     Delta-E=       -0.000000000141 Rises=F Damp=F
 DIIS: error= 1.28D-07 at cycle   7 NSaved=   7.
 NSaved= 7 IEnMin= 7 EnMin= -323.441307298627     IErMin= 7 ErrMin= 1.28D-07
 ErrMax= 1.28D-07  0.00D+00 EMaxC= 1.00D-01 BMatC= 4.64D-12 BMatP= 1.27D-10
 IDIUse=1 WtCom= 1.00D+00 WtEn= 0.00D+00
 Coeff-Com:  0.288D-02-0.111D-02-0.360D-01-0.126D-01 0.137D+00 0.206D+00
 Coeff-Com:  0.705D+00
 Coeff:      0.288D-02-0.111D-02-0.360D-01-0.126D-01 0.137D+00 0.206D+00
 Coeff:      0.705D+00
 Gap=     0.288 Goal=   None    Shift=    0.000
 RMSDP=1.04D-08 MaxDP=3.08D-07 DE=-1.41D-10 OVMax= 1.30D-06

 Cycle  15  Pass 1  IDiag  1:
 E= -323.441307298615     Delta-E=        0.000000000012 Rises=F Damp=F
 DIIS: error= 3.57D-08 at cycle   8 NSaved=   8.
 NSaved= 8 IEnMin= 7 EnMin= -323.441307298627     IErMin= 8 ErrMin= 3.57D-08
 ErrMax= 3.57D-08  0.00D+00 EMaxC= 1.00D-01 BMatC= 4.12D-13 BMatP= 4.64D-12
 IDIUse=1 WtCom= 1.00D+00 WtEn= 0.00D+00
 Coeff-Com:  0.315D-03 0.530D-03-0.122D-03-0.195D-02-0.153D-01 0.116D-01
 Coeff-Com:  0.244D+00 0.761D+00
 Coeff:      0.315D-03 0.530D-03-0.122D-03-0.195D-02-0.153D-01 0.116D-01
 Coeff:      0.244D+00 0.761D+00
 Gap=     0.288 Goal=   None    Shift=    0.000
 RMSDP=2.25D-09 MaxDP=9.44D-08 DE= 1.23D-11 OVMax= 2.36D-07

 SCF Done:  E(RBHandHLYP) =  -323.441307299     A.U. after   15 cycles
            NFock= 15  Conv=0.22D-08     -V/T= 2.0045
 KE= 3.219923412344D+02 PE=-1.301102817653D+03 EE= 3.823887302793D+02
 Leave Link  502 at Fri Aug 27 21:19:55 2021, MaxMem= 17179869184 cpu:       216.9
 (Enter /public3/home/sc51754/softwares/g09e01/l601.exe)
 Copying SCF densities to generalized density rwf, IOpCl= 0 IROHF=0.

 **********************************************************************

            Population analysis using the SCF density.

 **********************************************************************

 Orbital symmetries:
       Occupied  (A') (A') (A') (A") (A') (A") (A') (A') (A') (A')
                 (A") (A") (A') (A') (A") (A') (A") (A') (A') (A')
                 (A") (A') (A") (A") (A')
       Virtual   (A') (A') (A") (A") (A') (A") (A') (A') (A') (A")
                 (A') (A') (A') (A") (A") (A") (A') (A') (A") (A')
                 (A") (A') (A') (A") (A') (A') (A") (A') (A") (A')
                 (A') (A') (A") (A') (A') (A') (A") (A") (A") (A')
                 (A") (A') (A') (A") (A") (A') (A') (A") (A") (A')
                 (A') (A") (A") (A') (A') (A') (A') (A') (A") (A')
                 (A') (A") (A') (A") (A') (A") (A') (A") (A') (A")
                 (A') (A") (A') (A") (A') (A") (A') (A") (A") (A')
                 (A') (A") (A') (A") (A') (A') (A') (A') (A') (A")
                 (A") (A") (A') (A') (A") (A") (A') (A") (A') (A')
                 (A") (A') (A") (A") (A") (A') (A') (A') (A") (A')
                 (A') (A") (A') (A") (A') (A") (A') (A') (A") (A")
                 (A") (A') (A') (A") (A') (A") (A') (A") (A') (A')
                 (A") (A") (A') (A") (A') (A') (A') (A") (A') (A')
                 (A") (A") (A") (A') (A") (A') (A') (A') (A') (A")
                 (A") (A') (A') (A') (A") (A') (A") (A") (A') (A')
                 (A") (A') (A") (A") (A") (A") (A') (A') (A") (A')
                 (A") (A') (A') (A") (A') (A') (A") (A") (A") (A')
                 (A') (A') (A') (A") (A') (A") (A") (A') (A') (A")
                 (A') (A") (A") (A") (A') (A') (A') (A') (A") (A")
                 (A') (A') (A') (A") (A") (A") (A') (A") (A') (A')
                 (A') (A") (A") (A') (A") (A') (A") (A') (A") (A')
                 (A") (A') (A") (A") (A") (A') (A') (A") (A') (A")
                 (A') (A') (A") (A') (A') (A") (A') (A") (A") (A')
                 (A') (A") (A') (A') (A") (A') (A') (A") (A') (A')
                 (A") (A') (A") (A') (A')
 The electronic state is 1-A'.
 Alpha  occ. eigenvalues --  -19.62177 -14.87642 -10.65915 -10.65850 -10.65848
 Alpha  occ. eigenvalues --  -10.59174 -10.59173  -1.13967  -1.12367  -0.90547
 Alpha  occ. eigenvalues --   -0.90411  -0.74736  -0.72360  -0.67579  -0.58961
 Alpha  occ. eigenvalues --   -0.56378  -0.53534  -0.52171  -0.51045  -0.46470
 Alpha  occ. eigenvalues --   -0.45309  -0.43017  -0.33870  -0.30330  -0.27558
 Alpha virt. eigenvalues --    0.01195   0.01413   0.01683   0.05135   0.06789
 Alpha virt. eigenvalues --    0.09504   0.10028   0.15519   0.16269   0.17682
 Alpha virt. eigenvalues --    0.19022   0.19054   0.19887   0.21712   0.22221
 Alpha virt. eigenvalues --    0.25893   0.26258   0.26616   0.30938   0.31501
 Alpha virt. eigenvalues --    0.32122   0.32429   0.34219   0.34751   0.36228
 Alpha virt. eigenvalues --    0.37203   0.37245   0.40155   0.40522   0.43770
 Alpha virt. eigenvalues --    0.46670   0.48834   0.49730   0.50216   0.53359
 Alpha virt. eigenvalues --    0.53734   0.55703   0.58814   0.60352   0.62323
 Alpha virt. eigenvalues --    0.65820   0.65865   0.69930   0.70087   0.75175
 Alpha virt. eigenvalues --    0.75519   0.78688   0.80849   0.84597   0.86586
 Alpha virt. eigenvalues --    0.86962   0.91040   0.96028   0.96261   0.96969
 Alpha virt. eigenvalues --    1.01649   1.04507   1.05321   1.05323   1.13389
 Alpha virt. eigenvalues --    1.16266   1.17238   1.18141   1.19581   1.21581
 Alpha virt. eigenvalues --    1.23096   1.24654   1.26370   1.27390   1.29425
 Alpha virt. eigenvalues --    1.31190   1.33243   1.33554   1.37789   1.42021
 Alpha virt. eigenvalues --    1.42048   1.42622   1.49603   1.50639   1.52613
 Alpha virt. eigenvalues --    1.52920   1.53387   1.54296   1.54698   1.61845
 Alpha virt. eigenvalues --    1.64209   1.65757   1.71519   1.71669   1.72494
 Alpha virt. eigenvalues --    1.74612   1.74894   1.81963   1.84245   1.85172
 Alpha virt. eigenvalues --    1.86420   1.90657   1.91056   1.91536   1.97982
 Alpha virt. eigenvalues --    2.00012   2.03475   2.04083   2.09825   2.12295
 Alpha virt. eigenvalues --    2.14346   2.19363   2.23314   2.25430   2.28043
 Alpha virt. eigenvalues --    2.30673   2.31919   2.34024   2.37624   2.50628
 Alpha virt. eigenvalues --    2.52006   2.61826   2.64237   2.74423   2.91385
 Alpha virt. eigenvalues --    2.97237   3.02040   3.05711   3.06790   3.24949
 Alpha virt. eigenvalues --    3.27380   3.30343   3.31708   3.34507   3.35995
 Alpha virt. eigenvalues --    3.38160   3.41690   3.43450   3.46210   3.47076
 Alpha virt. eigenvalues --    3.55299   3.57691   3.62260   3.64749   3.66927
 Alpha virt. eigenvalues --    3.69185   3.73841   3.74074   3.76828   3.77789
 Alpha virt. eigenvalues --    3.79429   3.81699   3.87715   3.93987   4.01155
 Alpha virt. eigenvalues --    4.06090   4.06251   4.07529   4.09031   4.09403
 Alpha virt. eigenvalues --    4.13423   4.13613   4.13802   4.20109   4.20306
 Alpha virt. eigenvalues --    4.20828   4.21691   4.23667   4.25967   4.29082
 Alpha virt. eigenvalues --    4.30607   4.30805   4.32237   4.33824   4.34578
 Alpha virt. eigenvalues --    4.35035   4.38031   4.40660   4.40776   4.42390
 Alpha virt. eigenvalues --    4.42836   4.44854   4.45682   4.49217   4.49750
 Alpha virt. eigenvalues --    4.50971   4.53118   4.57071   4.57413   4.58512
 Alpha virt. eigenvalues --    4.59035   4.63307   4.64422   4.66165   4.67060
 Alpha virt. eigenvalues --    4.71762   4.71801   4.73561   4.77473   4.78752
 Alpha virt. eigenvalues --    4.82462   4.87633   4.89467   4.90583   4.90989
 Alpha virt. eigenvalues --    4.99766   5.05783   5.06647   5.07262   5.08086
 Alpha virt. eigenvalues --    5.11246   5.20291   5.21451   5.22233   5.30925
 Alpha virt. eigenvalues --    5.31946   5.36728   5.40282   5.40703   5.41115
 Alpha virt. eigenvalues --    5.46692   5.48711   5.54440   5.56177   5.56612
 Alpha virt. eigenvalues --    5.60958   5.60974   5.69194   5.73036   5.73110
 Alpha virt. eigenvalues --    5.73932   5.81116   5.82311   5.86742   5.90180
 Alpha virt. eigenvalues --    5.91392   6.03422   6.05372   6.08624   6.08937
 Alpha virt. eigenvalues --    6.21251   6.25890   6.32895   6.35277   6.41316
 Alpha virt. eigenvalues --    6.50644   6.64629   6.65643   6.71478   7.02471
 Alpha virt. eigenvalues --    7.07053   7.12647   7.35288   9.62759  12.57402
 Alpha virt. eigenvalues --   12.74217  15.50879  17.22658  18.67209  22.92665
          Condensed to atoms (all electrons):
               1          2          3          4          5          6
     1  C    4.612718   0.581792  -0.037433  -0.019977  -0.086557   0.377554
     2  C    0.581792   4.935214   0.415307  -0.047391  -0.019977  -0.065509
     3  C   -0.037433   0.415307   4.299369   0.415307  -0.037433  -0.010833
     4  C   -0.019977  -0.047391   0.415307   4.935214   0.581792  -0.065509
     5  C   -0.086557  -0.019977  -0.037433   0.581792   4.612718   0.377554
     6  N    0.377554  -0.065509  -0.010833  -0.065509   0.377554   6.366694
     7  H    0.416319  -0.017937   0.003422  -0.005000   0.004879  -0.037126
     8  H   -0.036824   0.437860  -0.025851   0.010388  -0.000903   0.003378
     9  H   -0.000903   0.010388  -0.025851   0.437860  -0.036824   0.003378
    10  H    0.004879  -0.005000   0.003422  -0.017937   0.416319  -0.037126
    11  O    0.006639  -0.080119   0.579213  -0.080119   0.006639   0.000896
    12  H   -0.026100   0.005384  -0.001013   0.005384  -0.026100   0.421352
               7          8          9         10         11         12
     1  C    0.416319  -0.036824  -0.000903   0.004879   0.006639  -0.026100
     2  C   -0.017937   0.437860   0.010388  -0.005000  -0.080119   0.005384
     3  C    0.003422  -0.025851  -0.025851   0.003422   0.579213  -0.001013
     4  C   -0.005000   0.010388   0.437860  -0.017937  -0.080119   0.005384
     5  C    0.004879  -0.000903  -0.036824   0.416319   0.006639  -0.026100
     6  N   -0.037126   0.003378   0.003378  -0.037126   0.000896   0.421352
     7  H    0.596046  -0.003814   0.000187  -0.000485  -0.000569  -0.006916
     8  H   -0.003814   0.571888   0.000104   0.000187   0.004085  -0.000389
     9  H    0.000187   0.000104   0.571888  -0.003814   0.004085  -0.000389
    10  H   -0.000485   0.000187  -0.003814   0.596046  -0.000569  -0.006916
    11  O   -0.000569   0.004085   0.004085  -0.000569   8.093903   0.000083
    12  H   -0.006916  -0.000389  -0.000389  -0.006916   0.000083   0.486657
 Mulliken charges:
               1
     1  C    0.207893
     2  C   -0.150010
     3  C    0.422376
     4  C   -0.150010
     5  C    0.207893
     6  N   -0.334703
     7  H    0.050993
     8  H    0.039890
     9  H    0.039890
    10  H    0.050993
    11  O   -0.534167
    12  H    0.148963
 Sum of Mulliken charges =  -0.00000
 Mulliken charges with hydrogens summed into heavy atoms:
               1
     1  C    0.258886
     2  C   -0.110120
     3  C    0.422376
     4  C   -0.110120
     5  C    0.258886
     6  N   -0.185741
    11  O   -0.534167
 Electronic spatial extent (au):  <R**2>=            641.7426
 Charge=             -0.0000 electrons
 Dipole moment (field-independent basis, Debye):
    X=              0.0014    Y=              7.2405    Z=              0.0000  Tot=              7.2405
 Quadrupole moment (field-independent basis, Debye-Ang):
   XX=            -43.5858   YY=            -43.0624   ZZ=            -34.3637
   XY=             -0.0056   XZ=              0.0000   YZ=              0.0000
 Traceless Quadrupole moment (field-independent basis, Debye-Ang):
   XX=             -3.2485   YY=             -2.7251   ZZ=              5.9736
   XY=             -0.0056   XZ=              0.0000   YZ=              0.0000
 Octapole moment (field-independent basis, Debye-Ang**2):
  XXX=             -0.0037  YYY=             60.0142  ZZZ=             -0.0000  XYY=              0.0026
  XXY=             -2.1281  XXZ=              0.0000  XZZ=              0.0095  YZZ=              4.3157
  YYZ=             -0.0000  XYZ=              0.0000
 Hexadecapole moment (field-independent basis, Debye-Ang**3):
 XXXX=            -48.9258 YYYY=           -499.2050 ZZZZ=           -262.9370 XXXY=             -0.0323
 XXXZ=             -0.0000 YYYX=             -0.0758 YYYZ=              0.0000 ZZZX=              0.0000
 ZZZY=              0.0000 XXYY=            -93.5247 XXZZ=            -65.5571 YYZZ=           -115.7070
 XXYZ=             -0.0000 YYXZ=              0.0000 ZZXY=             -0.0065
 N-N= 2.732804388411D+02 E-N=-1.301102809011D+03  KE= 3.219923412344D+02
 Symmetry A'   KE= 2.362186730616D+02
 Symmetry A"   KE= 8.577366817274D+01
 No NMR shielding tensors so no spin-rotation constants.
 Leave Link  601 at Fri Aug 27 21:19:56 2021, MaxMem= 17179869184 cpu:        61.4
 (Enter /public3/home/sc51754/softwares/g09e01/l701.exe)
 Compute integral first derivatives.
 ... and contract with generalized density number  0.
 Leave Link  701 at Fri Aug 27 21:19:58 2021, MaxMem= 17179869184 cpu:       106.2
 (Enter /public3/home/sc51754/softwares/g09e01/l702.exe)
 L702 exits ... SP integral derivatives will be done elsewhere.
 Leave Link  702 at Fri Aug 27 21:19:58 2021, MaxMem= 17179869184 cpu:         0.3
 (Enter /public3/home/sc51754/softwares/g09e01/l703.exe)
 Compute integral first derivatives, UseDBF=F ICtDFT=           0.
 Integral derivatives from FoFJK, PRISM(SPDF).
 Calling FoFJK, ICntrl=      2127 FMM=F ISym2X=1 I1Cent= 0 IOpClX= 0 NMat=1 NMatS=1 NMatT=0.
 FoFJK:  IHMeth= 1 ICntrl=    2127 DoSepK=F KAlg= 0 I1Cent=   0 FoldK=F
 IRaf=         0 NMat=   1 IRICut=       1 DoRegI=T DoRafI=F ISym2E= 1.
 FoFCou: FMM=F IPFlag=           0 FMFlag=      100000 FMFlg1=         800
         NFxFlg=           0 DoJE=F BraDBF=F KetDBF=F FulRan=T
         wScrn=  0.000000 ICntrl=    2127 IOpCl=  0 I1Cent=           0 NGrid=           0
         NMat0=    1 NMatS0=      1 NMatT0=    0 NMatD0=    1 NMtDS0=    0 NMtDT0=    0
 Petite list used in FoFCou.
 Leave Link  703 at Fri Aug 27 21:20:00 2021, MaxMem= 17179869184 cpu:       111.4
 (Enter /public3/home/sc51754/softwares/g09e01/l716.exe)
 Dipole        = 5.41626981D-04 2.84864117D+00 8.86536813D-16
 ***** Axes restored to original set *****
 -------------------------------------------------------------------
 Center     Atomic                   Forces (Hartrees/Bohr)
 Number     Number              X              Y              Z
 -------------------------------------------------------------------
      1        6          -0.000009678    0.008320893   -0.008185729
      2        6           0.000000870   -0.007867311   -0.000486886
      3        6          -0.000014228    0.016484783    0.000000000
      4        6           0.000000870   -0.007867311    0.000486886
      5        6          -0.000009678    0.008320893    0.008185729
      6        7           0.000004618    0.002359563    0.000000000
      7        1           0.000018247    0.005604138   -0.007141488
      8        1           0.000009862   -0.004393954   -0.007413832
      9        1           0.000009862   -0.004393954    0.007413832
     10        1           0.000018247    0.005604138    0.007141488
     11        8          -0.000008465   -0.034193214   -0.000000000
     12        1          -0.000020525    0.012021337   -0.000000000
 -------------------------------------------------------------------
 Cartesian Forces:  Max     0.034193214 RMS     0.007994988
 Leave Link  716 at Fri Aug 27 21:20:01 2021, MaxMem= 17179869184 cpu:         0.5
 (Enter /public3/home/sc51754/softwares/g09e01/l103.exe)

 GradGradGradGradGradGradGradGradGradGradGradGradGradGradGradGradGradGrad
 Berny optimization.
 FormGI is forming the generalized inverse of G from B-inverse, IUseBI=4.
 Internal  Forces:  Max     0.034193215 RMS     0.007871871
 Search for a local minimum.
 Step number   1 out of a maximum of   64
 All quantities printed in internal units (Hartrees-Bohrs-Radians)
 RMS Force = .78719D-02 SwitMx=.10000D-02 MixMth= 1
 Mixed Optimization -- RFO/linear search
 Second derivative matrix not updated -- first step.
 ITU=  0
     Eigenvalues ---    0.01179   0.01465   0.01838   0.01956   0.02032
     Eigenvalues ---    0.02219   0.02234   0.02399   0.02441   0.16000
     Eigenvalues ---    0.16000   0.16000   0.16000   0.16000   0.22000
     Eigenvalues ---    0.22000   0.23391   0.25000   0.34645   0.35229
     Eigenvalues ---    0.35431   0.35431   0.35528   0.35528   0.46397
     Eigenvalues ---    0.47941   0.48075   0.51510   0.53792   0.89549
 RFO step:  Lambda=-6.04815862D-03 EMin= 1.17876314D-02
 Linear search not attempted -- first point.
 Iteration  1 RMS(Cart)=  0.02399170 RMS(Int)=  0.00003939
 Iteration  2 RMS(Cart)=  0.00004047 RMS(Int)=  0.00000062
 Iteration  3 RMS(Cart)=  0.00000000 RMS(Int)=  0.00000062
 ITry= 1 IFail=0 DXMaxC= 8.40D-02 DCOld= 1.00D+10 DXMaxT= 3.00D-01 DXLimC= 3.00D+00 Rises=F
 ClnCor:  largest displacement from symmetrization is 1.70D-12 for atom    10.
 Variable       Old X    -DE/DX   Delta X   Delta X   Delta X     New X
                                 (Linear)    (Quad)   (Total)
    R1        2.56220  -0.02106   0.00000  -0.03875  -0.03875   2.52346
    R2        2.59705  -0.01536   0.00000  -0.03114  -0.03114   2.56591
    R3        2.04981  -0.00906   0.00000  -0.02515  -0.02515   2.02466
    R4        2.77562  -0.01292   0.00000  -0.03423  -0.03423   2.74139
    R5        2.04825  -0.00861   0.00000  -0.02384  -0.02384   2.02442
    R6        2.77562  -0.01292   0.00000  -0.03423  -0.03423   2.74139
    R7        2.33142  -0.03419   0.00000  -0.03793  -0.03793   2.29349
    R8        2.56220  -0.02106   0.00000  -0.03875  -0.03875   2.52346
    R9        2.04825  -0.00861   0.00000  -0.02384  -0.02384   2.02442
   R10        2.59705  -0.01536   0.00000  -0.03114  -0.03114   2.56591
   R11        2.04981  -0.00906   0.00000  -0.02515  -0.02515   2.02466
   R12        1.90386  -0.01202   0.00000  -0.02558  -0.02558   1.87829
    A1        2.11471   0.00145   0.00000   0.00460   0.00460   2.11931
    A2        2.15142  -0.00127   0.00000  -0.00561  -0.00561   2.14580
    A3        2.01706  -0.00017   0.00000   0.00101   0.00101   2.01807
    A4        2.12519  -0.00229   0.00000  -0.00802  -0.00802   2.11717
    A5        2.09805   0.00085   0.00000   0.00224   0.00224   2.10029
    A6        2.05994   0.00144   0.00000   0.00579   0.00579   2.06573
    A7        1.98154   0.00144   0.00000   0.00951   0.00951   1.99105
    A8        2.15082  -0.00072   0.00000  -0.00476  -0.00476   2.14607
    A9        2.15082  -0.00072   0.00000  -0.00476  -0.00476   2.14607
   A10        2.12519  -0.00229   0.00000  -0.00802  -0.00802   2.11717
   A11        2.05994   0.00144   0.00000   0.00579   0.00579   2.06573
   A12        2.09805   0.00085   0.00000   0.00224   0.00224   2.10029
   A13        2.11471   0.00145   0.00000   0.00460   0.00460   2.11931
   A14        2.15142  -0.00127   0.00000  -0.00561  -0.00561   2.14580
   A15        2.01706  -0.00017   0.00000   0.00101   0.00101   2.01807
   A16        2.10503   0.00024   0.00000  -0.00267  -0.00267   2.10236
   A17        2.08908  -0.00012   0.00000   0.00133   0.00134   2.09041
   A18        2.08908  -0.00012   0.00000   0.00133   0.00134   2.09041
    D1       -0.00015   0.00000   0.00000   0.00008   0.00008  -0.00007
    D2        3.14133   0.00000   0.00000   0.00017   0.00017   3.14150
    D3       -3.14143  -0.00000   0.00000  -0.00014  -0.00014  -3.14156
    D4        0.00006  -0.00000   0.00000  -0.00005  -0.00005   0.00001
    D5       -0.00035   0.00001   0.00000   0.00027   0.00027  -0.00008
    D6        3.14089   0.00000   0.00000   0.00011   0.00011   3.14100
    D7        3.14095   0.00001   0.00000   0.00047   0.00047   3.14142
    D8       -0.00100   0.00001   0.00000   0.00031   0.00031  -0.00069
    D9        0.00059  -0.00001   0.00000  -0.00039  -0.00039   0.00020
   D10       -3.14124   0.00000   0.00000   0.00010   0.00010  -3.14114
   D11       -3.14090  -0.00001   0.00000  -0.00047  -0.00047  -3.14137
   D12        0.00046  -0.00000   0.00000   0.00001   0.00001   0.00047
   D13       -0.00059   0.00001   0.00000   0.00039   0.00039  -0.00020
   D14        3.14090   0.00001   0.00000   0.00047   0.00047   3.14137
   D15        3.14124  -0.00000   0.00000  -0.00010  -0.00010   3.14114
   D16       -0.00046   0.00000   0.00000  -0.00001  -0.00001  -0.00047
   D17        0.00015  -0.00000   0.00000  -0.00008  -0.00008   0.00007
   D18        3.14143   0.00000   0.00000   0.00014   0.00014   3.14156
   D19       -3.14133  -0.00000   0.00000  -0.00017  -0.00017  -3.14150
   D20       -0.00006   0.00000   0.00000   0.00005   0.00005  -0.00001
   D21        0.00035  -0.00001   0.00000  -0.00027  -0.00027   0.00008
   D22       -3.14089  -0.00000   0.00000  -0.00011  -0.00011  -3.14100
   D23       -3.14095  -0.00001   0.00000  -0.00047  -0.00047  -3.14142
   D24        0.00100  -0.00001   0.00000  -0.00031  -0.00031   0.00069
         Item               Value     Threshold  Converged?
 Maximum Force            0.034193     0.000450     NO 
 RMS     Force            0.007872     0.000300     NO 
 Maximum Displacement     0.084011     0.001800     NO 
 RMS     Displacement     0.023998     0.001200     NO 
 Predicted change in Energy=-3.061087D-03
 Lowest energy point so far.  Saving SCF results.
 GradGradGradGradGradGradGradGradGradGradGradGradGradGradGradGradGradGrad

 Leave Link  103 at Fri Aug 27 21:20:01 2021, MaxMem= 17179869184 cpu:        28.6
 (Enter /public3/home/sc51754/softwares/g09e01/l202.exe)
                          Input orientation:                          
 ---------------------------------------------------------------------
 Center     Atomic      Atomic             Coordinates (Angstroms)
 Number     Number       Type             X           Y           Z
 ---------------------------------------------------------------------
      1          6           0       -0.000218   -1.036930    1.178603
      2          6           0       -0.000208    0.297869    1.217186
      3          6           0       -0.000063    1.087130    0.000000
      4          6           0       -0.000208    0.297869   -1.217186
      5          6           0       -0.000218   -1.036930   -1.178603
      6          7           0       -0.000179   -1.711153   -0.000000
      7          1           0       -0.000350   -1.645340    2.060502
      8          1           0       -0.000324    0.812026    2.157013
      9          1           0       -0.000324    0.812026   -2.157013
     10          1           0       -0.000350   -1.645340   -2.060502
     11          8           0        0.000412    2.300791    0.000000
     12          1           0        0.000327   -2.705099   -0.000000
 ---------------------------------------------------------------------
                    Distance matrix (angstroms):
                    1          2          3          4          5
     1  C    0.000000
     2  C    1.335357   0.000000
     3  C    2.429143   1.450681   0.000000
     4  C    2.742535   2.434373   1.450681   0.000000
     5  C    2.357206   2.742535   2.429143   1.335357   0.000000
     6  N    1.357822   2.348981   2.798283   2.348981   1.357822
     7  H    1.071405   2.118311   3.422288   3.810420   3.295749
     8  H    2.091871   1.071275   2.174485   3.413148   3.813787
     9  H    3.813787   3.413148   2.174485   1.071275   2.091871
    10  H    3.295749   3.810420   3.422288   2.118311   1.071405
    11  O    3.539702   2.343766   1.213662   2.343766   3.539702
    12  H    2.042521   3.240272   3.792228   3.240272   2.042521
                    6          7          8          9         10
     6  N    0.000000
     7  H    2.061552   0.000000
     8  H    3.319509   2.459261   0.000000
     9  H    3.319509   4.881196   4.314025   0.000000
    10  H    2.061552   4.121003   4.881196   2.459261   0.000000
    11  O    4.011944   4.451698   2.620902   2.620902   4.451698
    12  H    0.993946   2.317058   4.125878   4.125878   2.317058
                   11         12
    11  O    0.000000
    12  H    5.005890   0.000000
 Stoichiometry    C5H5NO
 Framework group  CS[SG(CHNO),X(C4H4)]
 Deg. of freedom    17
 Full point group                 CS      NOp   2
 RotChk:  IX=3 Diff= 1.09D-05
 Largest Abelian subgroup         CS      NOp   2
 Largest concise Abelian subgroup CS      NOp   2
                         Standard orientation:                         
 ---------------------------------------------------------------------
 Center     Atomic      Atomic             Coordinates (Angstroms)
 Number     Number       Type             X           Y           Z
 ---------------------------------------------------------------------
      1          6           0        0.000121    1.031142    1.178603
      2          6           0        0.000121   -0.303658    1.217186
      3          6           0       -0.000018   -1.092918    0.000000
      4          6           0        0.000121   -0.303658   -1.217186
      5          6           0        0.000121    1.031142   -1.178603
      6          7           0        0.000077    1.705365   -0.000000
      7          1           0        0.000248    1.639552    2.060502
      8          1           0        0.000241   -0.817815    2.157013
      9          1           0        0.000241   -0.817815   -2.157013
     10          1           0        0.000248    1.639552   -2.060502
     11          8           0       -0.000484   -2.306580    0.000000
     12          1           0       -0.000438    2.699310   -0.000000
 ---------------------------------------------------------------------
 Rotational constants (GHZ):      5.8202227      2.7798135      1.8812867
 Leave Link  202 at Fri Aug 27 21:20:02 2021, MaxMem= 17179869184 cpu:         6.3
 (Enter /public3/home/sc51754/softwares/g09e01/l301.exe)
 Basis read from rwf:  (5D, 7F)
 No pseudopotential information found on rwf file.
 There are   183 symmetry adapted cartesian basis functions of A'  symmetry.
 There are   137 symmetry adapted cartesian basis functions of A"  symmetry.
 There are   158 symmetry adapted basis functions of A'  symmetry.
 There are   122 symmetry adapted basis functions of A"  symmetry.
   280 basis functions,   475 primitive gaussians,   320 cartesian basis functions
    25 alpha electrons       25 beta electrons
       nuclear repulsion energy       277.0563257489 Hartrees.
 IExCor=  402 DFT=T Ex+Corr=BHandHLYP ExCW=0 ScaHFX=  0.500000
 ScaDFX=  0.500000  0.500000  1.000000  1.000000 ScalE2=  1.000000  1.000000
 IRadAn=      0 IRanWt=     -1 IRanGd=            0 ICorTp=0 IEmpDi=  4
 NAtoms=   12 NActive=   12 NUniq=    8 SFac= 2.25D+00 NAtFMM=   60 NAOKFM=F Big=F
 Integral buffers will be    131072 words long.
 Raffenetti 2 integral format.
 Two-electron integral symmetry is turned on.
 No density basis found on file   724.
 Leave Link  301 at Fri Aug 27 21:20:02 2021, MaxMem= 17179869184 cpu:         1.9
 (Enter /public3/home/sc51754/softwares/g09e01/l302.exe)
 NPDir=0 NMtPBC=     1 NCelOv=     1 NCel=       1 NClECP=     1 NCelD=      1
         NCelK=      1 NCelE2=     1 NClLst=     1 CellRange=     0.0.
 One-electron integrals computed using PRISM.
 One-electron integral symmetry used in STVInt
 NBasis=   280 RedAO= T EigKep=  1.68D-04  NBF=   158   122
 NBsUse=   280 1.00D-06 EigRej= -1.00D+00 NBFU=   158   122
 Precomputing XC quadrature grid using
 IXCGrd= 4 IRadAn=           0 IRanWt=          -1 IRanGd=           0 AccXCQ= 0.00D+00.
 Generated NRdTot=       0 NPtTot=           0 NUsed=           0 NTot=          32
 NSgBfM=   320   320   320   320   320 MxSgAt=    12 MxSgA2=    12.
 Leave Link  302 at Fri Aug 27 21:20:03 2021, MaxMem= 17179869184 cpu:        39.9
 (Enter /public3/home/sc51754/softwares/g09e01/l303.exe)
 DipDrv:  MaxL=1.
 Leave Link  303 at Fri Aug 27 21:20:03 2021, MaxMem= 17179869184 cpu:        13.7
 (Enter /public3/home/sc51754/softwares/g09e01/l401.exe)
 Initial guess from the checkpoint file:  "4PY_BHandHLYP_PC2_OPT_FREQ.chk"
 B after Tr=     0.000000    0.000000    0.000000
         Rot=    1.000000   -0.000000   -0.000000   -0.000014 Ang=  -0.00 deg.
 Guess basis will be translated and rotated to current coordinates.
 JPrj=2 DoOrth=T DoCkMO=T.
 Initial guess orbital symmetries:
       Occupied  (A') (A') (A') (A") (A') (A") (A') (A') (A') (A')
                 (A") (A") (A') (A') (A") (A') (A") (A') (A') (A')
                 (A") (A') (A") (A") (A')
       Virtual   (A') (A') (A') (A') (A') (A') (A') (A') (A') (A')
                 (A') (A') (A') (A') (A') (A') (A') (A') (A') (A')
                 (A') (A') (A') (A') (A') (A') (A') (A') (A') (A')
                 (A') (A') (A') (A') (A') (A') (A') (A') (A') (A')
                 (A') (A') (A') (A') (A') (A') (A') (A') (A') (A')
                 (A') (A') (A') (A') (A') (A') (A') (A') (A') (A')
                 (A') (A') (A') (A') (A') (A') (A') (A') (A') (A')
                 (A') (A') (A') (A') (A') (A') (A') (A') (A') (A')
                 (A') (A') (A') (A') (A') (A') (A') (A') (A') (A')
                 (A') (A') (A') (A') (A') (A') (A') (A') (A') (A')
                 (A') (A') (A') (A') (A') (A') (A') (A') (A') (A')
                 (A') (A') (A') (A') (A') (A') (A') (A') (A') (A')
                 (A') (A') (A') (A') (A') (A') (A') (A') (A') (A')
                 (A') (A') (A') (A') (A') (A') (A') (A') (A') (A')
                 (A') (A') (A") (A") (A") (A") (A") (A") (A") (A")
                 (A") (A") (A") (A") (A") (A") (A") (A") (A") (A")
                 (A") (A") (A") (A") (A") (A") (A") (A") (A") (A")
                 (A") (A") (A") (A") (A") (A") (A") (A") (A") (A")
                 (A") (A") (A") (A") (A") (A") (A") (A") (A") (A")
                 (A") (A") (A") (A") (A") (A") (A") (A") (A") (A")
                 (A") (A") (A") (A") (A") (A") (A") (A") (A") (A")
                 (A") (A") (A") (A") (A") (A") (A") (A") (A") (A")
                 (A") (A") (A") (A") (A") (A") (A") (A") (A") (A")
                 (A") (A") (A") (A") (A") (A") (A") (A") (A") (A")
                 (A") (A") (A") (A") (A") (A") (A") (A") (A") (A")
                 (A") (A") (A") (A") (A")
 The electronic state of the initial guess is 1-A'.
 Generating alternative initial guess.
 ExpMin= 7.41D-02 ExpMax= 1.48D+04 ExpMxC= 5.05D+02 IAcc=2 IRadAn=         4 AccDes= 0.00D+00
 Harris functional with IExCor=  402 and IRadAn=       4 diagonalized for initial guess.
 HarFok:  IExCor=  402 AccDes= 0.00D+00 IRadAn=         4 IDoV= 1 UseB2=F ITyADJ=14
 ICtDFT=  3500011 ScaDFX=  1.000000  1.000000  1.000000  1.000000
 FoFCou: FMM=F IPFlag=           0 FMFlag=      100000 FMFlg1=           0
         NFxFlg=           0 DoJE=T BraDBF=F KetDBF=T FulRan=T
         wScrn=  0.000000 ICntrl=     500 IOpCl=  0 I1Cent=   200000004 NGrid=           0
         NMat0=    1 NMatS0=      1 NMatT0=    0 NMatD0=    1 NMtDS0=    0 NMtDT0=    0
 Petite list used in FoFCou.
 Harris En= -323.697032289294    
 Leave Link  401 at Fri Aug 27 21:20:04 2021, MaxMem= 17179869184 cpu:        87.0
 (Enter /public3/home/sc51754/softwares/g09e01/l502.exe)
 Closed shell SCF:
 Using DIIS extrapolation, IDIIS=  1040.
 Integral symmetry usage will be decided dynamically.
 Keep R1 ints in memory in symmetry-blocked form, NReq=1161351758.
 IVT=      348938 IEndB=      348938 NGot= 17179869184 MDV= 16792355177
 LenX= 16792355177 LenY= 16792252336
 Requested convergence on RMS density matrix=1.00D-08 within 128 cycles.
 Requested convergence on MAX density matrix=1.00D-06.
 Requested convergence on             energy=1.00D-06.
 No special actions if energy rises.
 FoFCou: FMM=F IPFlag=           0 FMFlag=           0 FMFlg1=           0
         NFxFlg=           0 DoJE=F BraDBF=F KetDBF=F FulRan=T
         wScrn=  0.000000 ICntrl=     600 IOpCl=  0 I1Cent=           0 NGrid=           0
         NMat0=    1 NMatS0=  39340 NMatT0=    0 NMatD0=    1 NMtDS0=    0 NMtDT0=    0
 Petite list used in FoFCou.
 Integral accuracy reduced to 1.0D-05 until final iterations.

 Cycle   1  Pass 0  IDiag  1:
 E= -323.443227858250    
 DIIS: error= 1.56D-03 at cycle   1 NSaved=   1.
 NSaved= 1 IEnMin= 1 EnMin= -323.443227858250     IErMin= 1 ErrMin= 1.56D-03
 ErrMax= 1.56D-03  0.00D+00 EMaxC= 1.00D-01 BMatC= 9.99D-04 BMatP= 9.99D-04
 IDIUse=3 WtCom= 9.84D-01 WtEn= 1.56D-02
 Coeff-Com:  0.100D+01
 Coeff-En:   0.100D+01
 Coeff:      0.100D+01
 Gap=     0.675 Goal=   None    Shift=    0.000
 GapD=    0.675 DampG=2.000 DampE=1.000 DampFc=2.0000 IDamp=-1.
 RMSDP=1.01D-04 MaxDP=2.60D-03              OVMax= 5.73D-03

 Cycle   2  Pass 0  IDiag  1:
 E= -323.443976474750     Delta-E=       -0.000748616501 Rises=F Damp=F
 DIIS: error= 6.87D-04 at cycle   2 NSaved=   2.
 NSaved= 2 IEnMin= 2 EnMin= -323.443976474750     IErMin= 2 ErrMin= 6.87D-04
 ErrMax= 6.87D-04  0.00D+00 EMaxC= 1.00D-01 BMatC= 1.00D-04 BMatP= 9.99D-04
 IDIUse=3 WtCom= 9.93D-01 WtEn= 6.87D-03
 Coeff-Com:  0.153D+00 0.847D+00
 Coeff-En:   0.000D+00 0.100D+01
 Coeff:      0.152D+00 0.848D+00
 Gap=     0.288 Goal=   None    Shift=    0.000
 RMSDP=4.64D-05 MaxDP=2.03D-03 DE=-7.49D-04 OVMax= 3.47D-03

 Cycle   3  Pass 0  IDiag  1:
 E= -323.444036974050     Delta-E=       -0.000060499300 Rises=F Damp=F
 DIIS: error= 4.30D-04 at cycle   3 NSaved=   3.
 NSaved= 3 IEnMin= 3 EnMin= -323.444036974050     IErMin= 3 ErrMin= 4.30D-04
 ErrMax= 4.30D-04  0.00D+00 EMaxC= 1.00D-01 BMatC= 3.81D-05 BMatP= 1.00D-04
 IDIUse=3 WtCom= 9.96D-01 WtEn= 4.30D-03
 Coeff-Com: -0.833D-02 0.367D+00 0.641D+00
 Coeff-En:   0.000D+00 0.206D+00 0.794D+00
 Coeff:     -0.830D-02 0.367D+00 0.642D+00
 Gap=     0.289 Goal=   None    Shift=    0.000
 RMSDP=1.82D-05 MaxDP=7.33D-04 DE=-6.05D-05 OVMax= 2.35D-03

 Cycle   4  Pass 0  IDiag  1:
 E= -323.444068888573     Delta-E=       -0.000031914523 Rises=F Damp=F
 DIIS: error= 2.05D-04 at cycle   4 NSaved=   4.
 NSaved= 4 IEnMin= 4 EnMin= -323.444068888573     IErMin= 4 ErrMin= 2.05D-04
 ErrMax= 2.05D-04  0.00D+00 EMaxC= 1.00D-01 BMatC= 5.54D-06 BMatP= 3.81D-05
 IDIUse=3 WtCom= 9.98D-01 WtEn= 2.05D-03
 Coeff-Com: -0.153D-01 0.138D+00 0.349D+00 0.529D+00
 Coeff-En:   0.000D+00 0.000D+00 0.000D+00 0.100D+01
 Coeff:     -0.153D-01 0.138D+00 0.348D+00 0.530D+00
 Gap=     0.289 Goal=   None    Shift=    0.000
 RMSDP=7.50D-06 MaxDP=3.29D-04 DE=-3.19D-05 OVMax= 8.80D-04

 Initial convergence to 1.0D-05 achieved.  Increase integral accuracy.
 Cycle   5  Pass 1  IDiag  1:
 E= -323.444098707279     Delta-E=       -0.000029818706 Rises=F Damp=F
 DIIS: error= 3.90D-05 at cycle   1 NSaved=   1.
 NSaved= 1 IEnMin= 1 EnMin= -323.444098707279     IErMin= 1 ErrMin= 3.90D-05
 ErrMax= 3.90D-05  0.00D+00 EMaxC= 1.00D-01 BMatC= 3.19D-07 BMatP= 3.19D-07
 IDIUse=1 WtCom= 1.00D+00 WtEn= 0.00D+00
 Coeff-Com:  0.100D+01
 Coeff:      0.100D+01
 Gap=     0.289 Goal=   None    Shift=    0.000
 RMSDP=7.50D-06 MaxDP=3.29D-04 DE=-2.98D-05 OVMax= 5.06D-04

 Cycle   6  Pass 1  IDiag  1:
 E= -323.444098746961     Delta-E=       -0.000000039681 Rises=F Damp=F
 DIIS: error= 6.30D-05 at cycle   2 NSaved=   2.
 NSaved= 2 IEnMin= 2 EnMin= -323.444098746961     IErMin= 1 ErrMin= 3.90D-05
 ErrMax= 6.30D-05  0.00D+00 EMaxC= 1.00D-01 BMatC= 4.04D-07 BMatP= 3.19D-07
 IDIUse=1 WtCom= 1.00D+00 WtEn= 0.00D+00
 Coeff-Com:  0.533D+00 0.467D+00
 Coeff:      0.533D+00 0.467D+00
 Gap=     0.289 Goal=   None    Shift=    0.000
 RMSDP=2.19D-06 MaxDP=9.22D-05 DE=-3.97D-08 OVMax= 2.39D-04

 Cycle   7  Pass 1  IDiag  1:
 E= -323.444099046447     Delta-E=       -0.000000299486 Rises=F Damp=F
 DIIS: error= 8.11D-06 at cycle   3 NSaved=   3.
 NSaved= 3 IEnMin= 3 EnMin= -323.444099046447     IErMin= 3 ErrMin= 8.11D-06
 ErrMax= 8.11D-06  0.00D+00 EMaxC= 1.00D-01 BMatC= 1.32D-08 BMatP= 3.19D-07
 IDIUse=1 WtCom= 1.00D+00 WtEn= 0.00D+00
 Coeff-Com:  0.875D-01 0.156D+00 0.757D+00
 Coeff:      0.875D-01 0.156D+00 0.757D+00
 Gap=     0.289 Goal=   None    Shift=    0.000
 RMSDP=4.55D-07 MaxDP=2.29D-05 DE=-2.99D-07 OVMax= 6.87D-05

 Cycle   8  Pass 1  IDiag  1:
 E= -323.444099056930     Delta-E=       -0.000000010483 Rises=F Damp=F
 DIIS: error= 4.45D-06 at cycle   4 NSaved=   4.
 NSaved= 4 IEnMin= 4 EnMin= -323.444099056930     IErMin= 4 ErrMin= 4.45D-06
 ErrMax= 4.45D-06  0.00D+00 EMaxC= 1.00D-01 BMatC= 3.77D-09 BMatP= 1.32D-08
 IDIUse=1 WtCom= 1.00D+00 WtEn= 0.00D+00
 Coeff-Com: -0.402D-01-0.128D-01 0.365D+00 0.688D+00
 Coeff:     -0.402D-01-0.128D-01 0.365D+00 0.688D+00
 Gap=     0.289 Goal=   None    Shift=    0.000
 RMSDP=2.18D-07 MaxDP=6.99D-06 DE=-1.05D-08 OVMax= 1.26D-05

 Cycle   9  Pass 1  IDiag  1:
 E= -323.444099060321     Delta-E=       -0.000000003391 Rises=F Damp=F
 DIIS: error= 5.30D-07 at cycle   5 NSaved=   5.
 NSaved= 5 IEnMin= 5 EnMin= -323.444099060321     IErMin= 5 ErrMin= 5.30D-07
 ErrMax= 5.30D-07  0.00D+00 EMaxC= 1.00D-01 BMatC= 6.77D-11 BMatP= 3.77D-09
 IDIUse=1 WtCom= 1.00D+00 WtEn= 0.00D+00
 Coeff-Com: -0.824D-02-0.112D-01 0.374D-01 0.780D-01 0.904D+00
 Coeff:     -0.824D-02-0.112D-01 0.374D-01 0.780D-01 0.904D+00
 Gap=     0.289 Goal=   None    Shift=    0.000
 RMSDP=4.90D-08 MaxDP=1.61D-06 DE=-3.39D-09 OVMax= 4.43D-06

 Cycle  10  Pass 1  IDiag  1:
 E= -323.444099060415     Delta-E=       -0.000000000094 Rises=F Damp=F
 DIIS: error= 3.23D-07 at cycle   6 NSaved=   6.
 NSaved= 6 IEnMin= 6 EnMin= -323.444099060415     IErMin= 6 ErrMin= 3.23D-07
 ErrMax= 3.23D-07  0.00D+00 EMaxC= 1.00D-01 BMatC= 2.74D-11 BMatP= 6.77D-11
 IDIUse=1 WtCom= 1.00D+00 WtEn= 0.00D+00
 Coeff-Com:  0.321D-02-0.452D-02-0.452D-01-0.975D-01 0.376D+00 0.768D+00
 Coeff:      0.321D-02-0.452D-02-0.452D-01-0.975D-01 0.376D+00 0.768D+00
 Gap=     0.289 Goal=   None    Shift=    0.000
 RMSDP=2.41D-08 MaxDP=7.10D-07 DE=-9.41D-11 OVMax= 2.85D-06

 Cycle  11  Pass 1  IDiag  1:
 E= -323.444099060446     Delta-E=       -0.000000000031 Rises=F Damp=F
 DIIS: error= 7.49D-08 at cycle   7 NSaved=   7.
 NSaved= 7 IEnMin= 7 EnMin= -323.444099060446     IErMin= 7 ErrMin= 7.49D-08
 ErrMax= 7.49D-08  0.00D+00 EMaxC= 1.00D-01 BMatC= 1.79D-12 BMatP= 2.74D-11
 IDIUse=1 WtCom= 1.00D+00 WtEn= 0.00D+00
 Coeff-Com:  0.178D-02-0.972D-03-0.148D-01-0.389D-01 0.441D-01 0.222D+00
 Coeff-Com:  0.786D+00
[...]
 Iteration  2 RMS(Cart)=  0.00000000 RMS(Int)=  0.00000000
 ITry= 1 IFail=0 DXMaxC= 1.59D-04 DCOld= 1.00D+10 DXMaxT= 3.00D-01 DXLimC= 3.00D+00 Rises=F
 ClnCor:  largest displacement from symmetrization is 5.93D-10 for atom     9.
 Variable       Old X    -DE/DX   Delta X   Delta X   Delta X     New X
                                 (Linear)    (Quad)   (Total)
    R1        2.52807  -0.00001   0.00000  -0.00001  -0.00001   2.52806
    R2        2.56685   0.00001   0.00000   0.00002   0.00002   2.56687
    R3        2.02691   0.00000   0.00000   0.00000   0.00000   2.02691
    R4        2.74960  -0.00000   0.00000  -0.00002  -0.00002   2.74958
    R5        2.02529  -0.00000   0.00000  -0.00000  -0.00000   2.02528
    R6        2.74960  -0.00000   0.00000  -0.00002  -0.00002   2.74958
    R7        2.29197   0.00001   0.00000   0.00001   0.00001   2.29198
    R8        2.52807  -0.00001   0.00000  -0.00001  -0.00001   2.52806
    R9        2.02529  -0.00000   0.00000  -0.00000  -0.00000   2.02528
   R10        2.56685   0.00001   0.00000   0.00002   0.00002   2.56687
   R11        2.02691   0.00000   0.00000   0.00000   0.00000   2.02691
   R12        1.87926  -0.00001   0.00000  -0.00001  -0.00001   1.87925
    A1        2.12129  -0.00000   0.00000  -0.00001  -0.00001   2.12128
    A2        2.14266   0.00000   0.00000   0.00002   0.00002   2.14267
    A3        2.01924   0.00000   0.00000  -0.00000  -0.00000   2.01923
    A4        2.11852   0.00000   0.00000   0.00001   0.00001   2.11853
    A5        2.10122  -0.00000   0.00000  -0.00003  -0.00003   2.10119
    A6        2.06344   0.00000   0.00000   0.00003   0.00003   2.06347
    A7        1.98592   0.00000   0.00000   0.00001   0.00001   1.98593
    A8        2.14863  -0.00000   0.00000  -0.00000  -0.00000   2.14863
    A9        2.14863  -0.00000   0.00000  -0.00000  -0.00000   2.14863
   A10        2.11852   0.00000   0.00000   0.00001   0.00001   2.11853
   A11        2.06344   0.00000   0.00000   0.00003   0.00003   2.06347
   A12        2.10122  -0.00000   0.00000  -0.00003  -0.00003   2.10119
   A13        2.12129  -0.00000   0.00000  -0.00001  -0.00001   2.12128
   A14        2.14266   0.00000   0.00000   0.00002   0.00002   2.14267
   A15        2.01924   0.00000   0.00000  -0.00000  -0.00000   2.01923
   A16        2.10083   0.00000   0.00000   0.00001   0.00001   2.10083
   A17        2.09118  -0.00000   0.00000  -0.00000  -0.00000   2.09118
   A18        2.09118  -0.00000   0.00000  -0.00000  -0.00000   2.09118
    D1       -0.00002  -0.00000   0.00000   0.00002   0.00002   0.00000
    D2        3.14157  -0.00000   0.00000   0.00002   0.00002   3.14159
    D3       -3.14159  -0.00000   0.00000  -0.00000  -0.00000  -3.14159
    D4        0.00000  -0.00000   0.00000  -0.00000  -0.00000  -0.00000
    D5        0.00005  -0.00000   0.00000  -0.00005  -0.00005  -0.00000
    D6        3.14143   0.00000   0.00000   0.00016   0.00016  -3.14159
    D7       -3.14156  -0.00000   0.00000  -0.00003  -0.00003   3.14159
    D8       -0.00018   0.00000   0.00000   0.00018   0.00018   0.00000
    D9       -0.00001   0.00000   0.00000   0.00001   0.00001  -0.00000
   D10       -3.14158  -0.00000   0.00000  -0.00001  -0.00001   3.14159
   D11        3.14158   0.00000   0.00000   0.00001   0.00001  -3.14159
   D12        0.00002  -0.00000   0.00000  -0.00002  -0.00002  -0.00000
   D13        0.00001  -0.00000   0.00000  -0.00001  -0.00001   0.00000
   D14       -3.14158  -0.00000   0.00000  -0.00001  -0.00001   3.14159
   D15        3.14158   0.00000   0.00000   0.00001   0.00001  -3.14159
   D16       -0.00002   0.00000   0.00000   0.00002   0.00002   0.00000
   D17        0.00002   0.00000   0.00000  -0.00002  -0.00002  -0.00000
   D18        3.14159   0.00000   0.00000   0.00000   0.00000   3.14159
   D19       -3.14157   0.00000   0.00000  -0.00002  -0.00002  -3.14159
   D20       -0.00000   0.00000   0.00000   0.00000   0.00000   0.00000
   D21       -0.00005   0.00000   0.00000   0.00005   0.00005   0.00000
   D22       -3.14143  -0.00000   0.00000  -0.00016  -0.00016   3.14159
   D23        3.14156   0.00000   0.00000   0.00003   0.00003  -3.14159
   D24        0.00018  -0.00000   0.00000  -0.00018  -0.00018  -0.00000
         Item               Value     Threshold  Converged?
 Maximum Force            0.000010     0.000450     YES
 RMS     Force            0.000003     0.000300     YES
 Maximum Displacement     0.000159     0.001800     YES
 RMS     Displacement     0.000029     0.001200     YES
 Predicted change in Energy=-1.130669D-09
 Optimization completed.
    -- Stationary point found.
                           ----------------------------
                           !   Optimized Parameters   !
                           ! (Angstroms and Degrees)  !
 --------------------------                            --------------------------
 ! Name  Definition              Value          Derivative Info.                !
 --------------------------------------------------------------------------------
 ! R1    R(1,2)                  1.3378         -DE/DX =    0.0                 !
 ! R2    R(1,6)                  1.3583         -DE/DX =    0.0                 !
 ! R3    R(1,7)                  1.0726         -DE/DX =    0.0                 !
 ! R4    R(2,3)                  1.455          -DE/DX =    0.0                 !
 ! R5    R(2,8)                  1.0717         -DE/DX =    0.0                 !
 ! R6    R(3,4)                  1.455          -DE/DX =    0.0                 !
 ! R7    R(3,11)                 1.2129         -DE/DX =    0.0                 !
 ! R8    R(4,5)                  1.3378         -DE/DX =    0.0                 !
 ! R9    R(4,9)                  1.0717         -DE/DX =    0.0                 !
 ! R10   R(5,6)                  1.3583         -DE/DX =    0.0                 !
 ! R11   R(5,10)                 1.0726         -DE/DX =    0.0                 !
 ! R12   R(6,12)                 0.9945         -DE/DX =    0.0                 !
 ! A1    A(2,1,6)              121.5411         -DE/DX =    0.0                 !
 ! A2    A(2,1,7)              122.7651         -DE/DX =    0.0                 !
 ! A3    A(6,1,7)              115.6938         -DE/DX =    0.0                 !
 ! A4    A(1,2,3)              121.3822         -DE/DX =    0.0                 !
 ! A5    A(1,2,8)              120.3911         -DE/DX =    0.0                 !
 ! A6    A(3,2,8)              118.2267         -DE/DX =    0.0                 !
 ! A7    A(2,3,4)              113.7848         -DE/DX =    0.0                 !
 ! A8    A(2,3,11)             123.1076         -DE/DX =    0.0                 !
 ! A9    A(4,3,11)             123.1076         -DE/DX =    0.0                 !
 ! A10   A(3,4,5)              121.3822         -DE/DX =    0.0                 !
 ! A11   A(3,4,9)              118.2267         -DE/DX =    0.0                 !
 ! A12   A(5,4,9)              120.3911         -DE/DX =    0.0                 !
 ! A13   A(4,5,6)              121.5411         -DE/DX =    0.0                 !
 ! A14   A(4,5,10)             122.7651         -DE/DX =    0.0                 !
 ! A15   A(6,5,10)             115.6938         -DE/DX =    0.0                 !
 ! A16   A(1,6,5)              120.3685         -DE/DX =    0.0                 !
 ! A17   A(1,6,12)             119.8158         -DE/DX =    0.0                 !
 ! A18   A(5,6,12)             119.8158         -DE/DX =    0.0                 !
 ! D1    D(6,1,2,3)             -0.0009         -DE/DX =    0.0                 !
 ! D2    D(6,1,2,8)            179.9989         -DE/DX =    0.0                 !
 ! D3    D(7,1,2,3)           -179.9998         -DE/DX =    0.0                 !
 ! D4    D(7,1,2,8)              0.0            -DE/DX =    0.0                 !
 ! D5    D(2,1,6,5)              0.0027         -DE/DX =    0.0                 !
 ! D6    D(2,1,6,12)          -180.0094         -DE/DX =    0.0                 !
 ! D7    D(7,1,6,5)            180.0016         -DE/DX =    0.0                 !
 ! D8    D(7,1,6,12)            -0.0104         -DE/DX =    0.0                 !
 ! D9    D(1,2,3,4)             -0.0008         -DE/DX =    0.0                 !
 ! D10   D(1,2,3,11)           180.0008         -DE/DX =    0.0                 !
 ! D11   D(8,2,3,4)           -180.0006         -DE/DX =    0.0                 !
 ! D12   D(8,2,3,11)             0.001          -DE/DX =    0.0                 !
 ! D13   D(2,3,4,5)              0.0008         -DE/DX =    0.0                 !
 ! D14   D(2,3,4,9)            180.0006         -DE/DX =    0.0                 !
 ! D15   D(11,3,4,5)          -180.0008         -DE/DX =    0.0                 !
 ! D16   D(11,3,4,9)            -0.001          -DE/DX =    0.0                 !
 ! D17   D(3,4,5,6)              0.0009         -DE/DX =    0.0                 !
 ! D18   D(3,4,5,10)           179.9998         -DE/DX =    0.0                 !
 ! D19   D(9,4,5,6)           -179.9989         -DE/DX =    0.0                 !
 ! D20   D(9,4,5,10)             0.0            -DE/DX =    0.0                 !
 ! D21   D(4,5,6,1)             -0.0027         -DE/DX =    0.0                 !
 ! D22   D(4,5,6,12)           180.0094         -DE/DX =    0.0                 !
 ! D23   D(10,5,6,1)          -180.0016         -DE/DX =    0.0                 !
 ! D24   D(10,5,6,12)            0.0104         -DE/DX =    0.0                 !
 --------------------------------------------------------------------------------
 GradGradGradGradGradGradGradGradGradGradGradGradGradGradGradGradGradGrad

 Leave Link  103 at Fri Aug 27 21:21:34 2021, MaxMem= 17179869184 cpu:        22.5
 (Enter /public3/home/sc51754/softwares/g09e01/l9999.exe)
 1\1\GINC-T1507\Freq\RBHandHLYP\Gen\C5H5N1O1\SC51754\27-Aug-2021\0\\#P 
 Geom=AllCheck Guess=TCheck SCRF=Check GenChk RBHandHLYP/ChkBas Freq\\4
 PY_BHandHLYP_PC2_OPT_FREQ\\0,1\C,-0.0001754898,-1.0389030205,1.1785178
 256\C,-0.0001261738,0.2982859067,1.2187964055\C,-0.0001059021,1.093038
 9581,0.\C,-0.0001261738,0.2982859067,-1.2187964055\C,-0.0001754898,-1.
 0389030205,-1.1785178256\N,-0.0002274282,-1.71427717,0.\H,-0.000194917
 8,-1.6462792342,2.0625717577\H,-0.0001035741,0.8123962655,2.159172735\
 H,-0.0001035741,0.8123962655,-2.159172735\H,-0.0001949178,-1.646279234
 2,-2.0625717577\O,-0.000047844,2.3058954821,0.\H,-0.0001225147,-2.7087
 371052,0.\\Version=EM64L-G09RevE.01\State=1-A'\HF=-323.4441475\RMSD=2.
 661e-09\RMSF=5.720e-06\ZeroPoint=0.0968974\Thermal=0.1021339\Dipole=-0
 .0000306,-2.7981475,0.\DipoleDeriv=-0.0458813,0.0000996,0.0000048,0.00
 00539,0.7651929,0.2795666,0.0000296,0.4340487,0.4688485,-0.2270552,0.0
 000036,-0.0000006,-0.0000203,-0.6322856,0.0527715,0.000023,0.5192073,-
 0.1592219,0.2836382,0.000064,0.,0.0000627,2.054405,0.,0.,0.,0.6194036,
 -0.2270552,0.0000036,0.0000006,-0.0000203,-0.6322856,-0.0527715,-0.000
 023,-0.5192072,-0.1592219,-0.0458813,0.0000996,-0.0000048,0.0000539,0.
 765193,-0.2795666,-0.0000296,-0.4340488,0.4688485,-0.2075172,-0.000259
 8,0.,-0.0000758,-0.9739369,0.,0.,0.,-0.8159121,0.1488597,-0.0000189,0.
 ,-0.0000026,0.0271561,0.0613594,0.0000007,0.0542925,-0.0013452,0.15360
 4,-0.0000075,0.0000034,-0.0000042,0.0560062,-0.0305419,-0.0000016,-0.0
 234075,-0.022598,0.153604,-0.0000075,-0.0000034,-0.0000042,0.0560062,0
 .0305419,0.0000016,0.0234074,-0.022598,0.1488597,-0.0000189,0.,-0.0000
 026,0.0271561,-0.0613594,-0.0000007,-0.0542925,-0.0013452,-0.4451415,-
 0.0000614,0.,-0.0000491,-1.8106104,0.,0.,0.,-0.5108747,0.3099662,0.000
 1034,0.,0.0000085,0.2980032,0.,0.,0.,0.1360165\Polar=37.6890173,0.0018
 472,88.307988,0.,0.0000001,65.3027388\PG=CS [SG(C1H1N1O1),X(C4H4)]\NIm
 ag=0\\0.14816201,0.00002232,0.88257552,0.00000250,-0.05888991,0.738109
 81,-0.05900385,-0.00001488,-0.00000054,0.11619274,-0.00001408,-0.49028
 488,0.01769455,0.00002773,0.84819969,-0.00000261,-0.02052508,-0.148506
 76,0.00000607,0.08628654,0.68852884,-0.00069929,-0.00000210,0.00000024
 ,-0.08022107,-0.00000049,0.00000032,0.21612730,-0.00000159,-0.03684632
 ,0.02505853,-0.00000104,-0.11913884,0.03760269,0.00003284,0.97027689,0
 .00000269,0.04346648,0.04989495,-0.00000014,0.02601415,-0.23061003,0.,
 0.,0.57499342,-0.00158622,-0.00000022,-0.00000029,0.01026012,0.0000005
 9,0.00000009,-0.08022107,-0.00000104,0.00000014,0.11619274,-0.00000001
 ,-0.01154325,-0.02246269,0.00000059,0.02882099,0.01275624,-0.00000049,
 -0.11913885,-0.02601415,0.00002773,0.84819969,0.00000055,0.00568749,-0
 .00291614,-0.00000009,-0.01275624,-0.02780782,-0.00000032,-0.03760268,
 -0.23061003,-0.00000607,-0.08628654,0.68852884,0.00647356,0.00000013,-
 0.00000160,-0.00158622,-0.00000001,-0.00000055,-0.00069929,-0.00000159
 ,-0.00000269,-0.05900385,-0.00001408,0.00000261,0.14816201,0.00000013,
 0.02513815,0.00829217,-0.00000022,-0.01154325,-0.00568749,-0.00000210,
 -0.03684631,-0.04346648,-0.00001488,-0.49028488,0.02052508,0.00002232,
 0.88257552,0.00000160,-0.00829217,-0.07505001,0.00000029,0.02246269,-0
 .00291614,-0.00000024,-0.02505854,0.04989495,0.00000054,-0.01769455,-0
 .14850676,-0.00000250,0.05888991,0.73810981,-0.05193875,0.00000407,-0.
 00000340,0.01187006,-0.00000580,0.00000130,-0.01087170,0.00000319,0.,0
 .01187006,-0.00000580,-0.00000130,-0.05193875,0.00000407,0.00000340,0.
 07118977,-0.00000416,-0.19270188,-0.09743001,-0.00000376,-0.04513850,-
 0.04050223,0.00000089,0.01684642,0.,-0.00000376,-0.04513850,0.04050223
 ,-0.00000416,-0.19270188,0.09743001,-0.00004301,0.94901740,-0.00001199
 ,-0.06245294,-0.29223897,-0.00000152,-0.05812311,0.01053358,0.,0.,-0.0
 6363869,0.00000152,0.05812311,0.01053358,0.00001199,0.06245294,-0.2922
 3896,0.,0.,0.73946251,-0.04219232,-0.00000346,0.00000563,0.00831798,-0
 .00000114,0.00000106,0.01224229,-0.00000053,-0.00000066,-0.00119164,0.
 00000029,0.,0.00384871,-0.00000062,0.00000050,0.00147249,0.00000095,-0
 .00000293,0.02740538,-0.00000377,-0.16539468,0.14456548,-0.00000070,-0
 .01172023,0.02936056,-0.00000043,-0.00328799,-0.00501320,0.00000002,0.
 00063607,0.00027361,-0.00000035,-0.00280898,-0.00206213,0.00000015,0.0
 1488104,-0.02178384,0.00000470,0.16691701,0.00000362,0.13581881,-0.262
 37016,-0.00000004,-0.00168404,0.00710736,-0.00000013,-0.00184334,0.000
 12550,0.,0.00067056,0.00103731,-0.00000032,-0.00658696,-0.00113248,0.0
 0000044,0.01883985,-0.02827936,-0.00000377,-0.14675889,0.28299294,-0.0
 0094764,-0.00000073,-0.00000102,-0.03410098,-0.00000384,-0.00000572,0.
 00482783,0.00000017,0.00000054,0.00339447,-0.00000028,-0.00000012,-0.0
 0005578,0.00000031,-0.00000031,0.00982384,-0.00000058,0.00000088,-0.00
 606079,0.00000029,0.00000007,0.02574503,-0.00000053,-0.01011585,-0.030
 96393,-0.00000421,-0.12911802,-0.12567344,0.00000040,0.01343605,0.0164
 9415,-0.00000023,-0.00210644,0.00328329,-0.00000002,-0.00063466,0.0009
 9770,-0.00000007,-0.00598396,0.00135362,0.00000020,0.00094788,0.000198
 46,0.00000454,0.13221655,0.00000021,0.00256552,0.00400434,-0.00000597,
 -0.12812024,-0.29852565,-0.00000080,-0.01965620,-0.01879181,0.00000007
 ,0.00384053,-0.00390089,0.00000009,0.00162692,-0.00074545,0.00000001,0
 .00161360,0.00349024,0.00000003,-0.00054021,0.00075998,0.00000630,0.13
 795077,0.30998061,-0.00005578,0.00000031,0.00000031,0.00339447,-0.0000
 0028,0.00000012,0.00482783,0.00000017,-0.00000054,-0.03410098,-0.00000
 384,0.00000572,-0.00094764,-0.00000073,0.00000102,0.00982384,-0.000000
 58,-0.00000088,-0.00069710,0.00000004,0.00000001,-0.00100258,0.0000000
 4,0.00000002,0.02574503,-0.00000002,-0.00063466,-0.00099770,-0.0000002
 3,-0.00210644,-0.00328329,0.00000040,0.01343605,-0.01649415,-0.0000042
 1,-0.12911802,0.12567344,-0.00000053,-0.01011585,0.03096393,-0.0000000
 7,-0.00598396,-0.00135362,0.00000005,0.00010038,0.00009718,0.00000004,
 0.00061939,-0.00087817,0.00000454,0.13221655,-0.00000009,-0.00162692,-
 0.00074545,-0.00000007,-0.00384053,-0.00390089,0.00000080,0.01965620,-
 0.01879181,0.00000597,0.12812024,-0.29852565,-0.00000021,-0.00256552,0
 .00400434,-0.00000001,-0.00161360,0.00349024,0.,0.00010676,0.00004797,
 -0.00000002,0.00087817,-0.00105903,-0.00000630,-0.13795077,0.30998061,
 0.00384871,-0.00000062,-0.00000050,-0.00119164,0.00000029,0.,0.0122422
 9,-0.00000053,0.00000066,0.00831798,-0.00000114,-0.00000106,-0.0421923
 2,-0.00000346,-0.00000563,0.00147249,0.00000095,0.00000293,0.00112309,
 -0.00000003,0.00000004,-0.00069710,0.00000005,0.,-0.00606079,0.0000002
 0,-0.00000003,0.02740538,-0.00000035,-0.00280898,0.00206213,0.00000002
 ,0.00063607,-0.00027361,-0.00000043,-0.00328799,0.00501320,-0.00000070
 ,-0.01172023,-0.02936056,-0.00000377,-0.16539468,-0.14456548,0.0000001
 5,0.01488104,0.02178384,-0.00000003,0.00048240,0.00077519,0.00000004,0
 .00010038,-0.00010676,0.00000029,0.00094788,0.00054021,0.00000470,0.16
 691701,0.00000032,0.00658696,-0.00113248,0.,-0.00067056,0.00103731,0.0
 0000013,0.00184334,0.00012550,0.00000004,0.00168404,0.00710736,-0.0000
 0362,-0.13581881,-0.26237016,-0.00000044,-0.01883985,-0.02827935,-0.00
 000004,-0.00077519,-0.00108931,-0.00000001,-0.00009718,0.00004797,-0.0
 0000007,-0.00019846,0.00075998,0.00000377,0.14675889,0.28299294,0.0044
 5979,0.00000071,0.00000070,0.02290679,-0.00000403,0.00000134,-0.076972
 62,-0.00002918,0.,0.02290679,-0.00000403,-0.00000134,0.00445979,0.0000
 0071,-0.00000070,0.00008139,-0.00000040,0.,-0.00237803,-0.00000006,0.0
 0000001,-0.00280878,0.00000017,0.00000010,-0.00280878,0.00000017,-0.00
 000010,-0.00237803,-0.00000006,-0.00000001,0.03284086,0.00000104,0.014
 97583,0.01178524,-0.00000377,-0.07165217,0.03340319,-0.00002880,-0.694
 12564,0.,-0.00000377,-0.07165216,-0.03340320,0.00000104,0.01497582,-0.
 01178523,-0.00000311,-0.01390344,0.,0.00000002,-0.00205831,0.00027097,
 0.00000012,0.00102478,0.00135208,0.00000012,0.00102478,-0.00135207,0.0
 0000002,-0.00205831,-0.00027097,0.00003603,0.82167355,-0.00000054,-0.0
 0602529,-0.01669309,0.00000231,0.05442910,0.01152889,0.,0.,-0.11046526
 ,-0.00000231,-0.05442910,0.01152889,0.00000054,0.00602529,-0.01669309,
 0.,0.,0.01628006,0.00000017,0.00207103,0.00033926,-0.00000013,-0.00299
 621,0.00447991,0.00000013,0.00299621,0.00447991,-0.00000017,-0.0020710
 3,0.00033926,0.,0.,0.09412224,-0.00652021,-0.00000553,-0.00000203,0.00
 316160,0.00000108,-0.00000140,-0.00058250,-0.00000087,0.,0.00316160,0.
 00000108,0.00000140,-0.00652021,-0.00000553,0.00000203,-0.00285474,0.0
 0005762,0.,-0.00189005,0.00000014,0.00000005,0.00188248,-0.00000035,-0
 .00000005,0.00188248,-0.00000035,0.00000005,-0.00189005,0.00000014,-0.
 00000005,-0.00030915,0.00000105,0.,0.01047874,0.00000103,-0.01235899,0
 .00128614,0.00000047,0.00304558,-0.00346410,0.00000030,-0.00132346,0.,
 0.00000047,0.00304558,0.00346410,0.00000103,-0.01235899,-0.00128614,0.
 00004623,-0.49407379,0.,-0.00000043,0.00130542,0.00020222,-0.00000008,
 -0.00038609,0.00035218,-0.00000008,-0.00038609,-0.00035218,-0.00000043
 ,0.00130542,-0.00020222,-0.00000002,0.00177528,0.,-0.00004849,0.510410
 14,0.00000375,-0.03631294,0.00764395,-0.00000028,-0.00169231,-0.006468
 70,0.,0.,-0.00212670,0.00000028,0.00169231,-0.00646870,-0.00000375,0.0
 3631294,0.00764395,0.,0.,-0.07911488,0.,0.00055602,0.00046098,-0.00000
 045,-0.00142540,0.00025979,0.00000045,0.00142540,0.00025979,0.,-0.0005
 5603,0.00046098,0.,0.,0.00075302,0.,0.,0.07669654\\0.00000106,-0.00000
 817,-0.00001254,0.00000145,-0.00000222,0.00000853,-0.00000368,0.000017
 98,0.,0.00000145,-0.00000222,-0.00000853,0.00000106,-0.00000817,0.0000
 1254,-0.00000392,0.00000735,0.,-0.00000059,0.00000127,-0.00000039,-0.0
 0000006,0.00000379,-0.00000118,-0.00000006,0.00000379,0.00000118,-0.00
 000059,0.00000127,0.00000039,0.00000145,-0.00000958,0.,0.00000243,-0.0
 0000509,0.\\\@


 IN-LAWS ARE LIKE SEEDS. YOU DON'T NEED THEM
 BUT THEY COME WITH THE TOMATO.
 Job cpu time:       0 days  0 hours 34 minutes 21.0 seconds.
 File lengths (MBytes):  RWF=     65 Int=      0 D2E=      0 Chk=      7 Scr=      1
 Normal termination of Gaussian 09 at Fri Aug 27 21:21:34 2021.
