 Entering Gaussian System, Link 0=g09
 AtFile(1): pc-2.gbs
            -H     0
            S    4   1.00
                  0.754230D+02           0.240650D-02
                  0.113500D+02           0.184870D-01
                  0.259930D+01           0.897420D-01
                  0.735130D+00           0.281110D+00
            S    1   1.00
                  0.231670D+00           0.100000D+01
            S    1   1.00
                  0.741470D-01           0.100000D+01
            P    1   1.00
                  0.160000D+01           0.100000D+01
            P    1   1.00
                  0.450000D+00           0.100000D+01
            D    1   1.00
                  0.125000D+01           0.100000D+01
            ****
            -C     0
            S    7   1.00
                  0.785710D+04           0.568250D-03
                  0.117870D+04           0.439150D-02
                  0.268320D+03           0.225040D-01
                  0.759480D+02           0.866530D-01
                  0.245590D+02           0.244050D+00
                  0.862120D+01           0.441480D+00
                  0.312780D+01           0.353320D+00
            S    7   1.00
                  0.117870D+04          -0.594920D-06
                  0.268320D+03          -0.627480D-04
                  0.759480D+02          -0.757730D-03
                  0.245590D+02          -0.733080D-02
                  0.862120D+01          -0.389320D-01
                  0.312780D+01          -0.889080D-01
                  0.822020D+00           0.216890D+00
            S    1   1.00
                  0.330170D+00           0.100000D+01
            S    1   1.00
                  0.114630D+00           0.100000D+01
            P    4   1.00
                  0.337750D+02           0.602940D-02
                  0.767660D+01           0.432280D-01
                  0.223570D+01           0.163010D+00
                  0.764470D+00           0.365040D+00
            P    1   1.00
                  0.262320D+00           0.100000D+01
            P    1   1.00
                  0.846380D-01           0.100000D+01
            D    1   1.00
                  0.140000D+01           0.100000D+01
            D    1   1.00
                  0.450000D+00           0.100000D+01
            F    1   1.00
                  0.950000D+00           0.100000D+01
            ****
            -N     0
            S    7   1.00
                  0.111010D+05           0.545700D-03
                  0.166530D+04           0.421810D-02
                  0.379080D+03           0.216450D-01
                  0.107300D+03           0.837760D-01
                  0.347470D+02           0.238810D+00
                  0.122490D+02           0.439940D+00
                  0.447430D+01           0.363640D+00
            S    7   1.00
                  0.166530D+04          -0.150060D-05
                  0.379080D+03          -0.587530D-04
                  0.107300D+03          -0.774530D-03
                  0.347470D+02          -0.721610D-02
                  0.122490D+02          -0.393380D-01
                  0.447430D+01          -0.906110D-01
                  0.124040D+01           0.198820D+00
            S    1   1.00
                  0.487430D+00           0.100000D+01
            S    1   1.00
                  0.164840D+00           0.100000D+01
            P    4   1.00
                  0.479340D+02           0.617060D-02
                  0.109990D+02           0.442600D-01
                  0.324720D+01           0.168250D+00
                  0.111140D+01           0.368480D+00
            P    1   1.00
                  0.379880D+00           0.100000D+01
            P    1   1.00
                  0.120680D+00           0.100000D+01
            D    1   1.00
                  0.180000D+01           0.100000D+01
            D    1   1.00
                  0.550000D+00           0.100000D+01
            F    1   1.00
                  0.102000D+01           0.100000D+01
            ****
            -O     0
            S    7   1.00
                  0.147820D+05           0.535190D-03
                  0.221730D+04           0.413750D-02
                  0.504740D+03           0.212450D-01
                  0.142870D+03           0.824530D-01
                  0.463000D+02           0.236710D+00
                  0.163370D+02           0.440390D+00
                  0.598280D+01           0.364650D+00
            S    7   1.00
                  0.221730D+04          -0.192750D-05
                  0.504740D+03          -0.579640D-04
                  0.142870D+03          -0.794940D-03
                  0.463000D+02          -0.731250D-02
                  0.163370D+02          -0.405740D-01
                  0.598280D+01          -0.915940D-01
                  0.167180D+01           0.209400D+00
            S    1   1.00
                  0.646620D+00           0.100000D+01
            S    1   1.00
                  0.216690D+00           0.100000D+01
            P    4   1.00
                  0.604240D+02           0.689490D-02
                  0.139350D+02           0.490050D-01
                  0.415310D+01           0.182550D+00
                  0.141580D+01           0.376330D+00
            P    1   1.00
                  0.475490D+00           0.100000D+01
            P    1   1.00
                  0.145290D+00           0.100000D+01
            D    1   1.00
                  0.220000D+01           0.100000D+01
            D    1   1.00
                  0.650000D+00           0.100000D+01
            F    1   1.00
                  0.110000D+01           0.100000D+01
            ****
 Initial command:
 /public3/home/sc51754/softwares/g09e01/l1.exe "./Gau-24594.inp" -scrdir="./"
 Entering Link 1 = /public3/home/sc51754/softwares/g09e01/l1.exe PID=     24595.
  
 Copyright (c) 1988,1990,1992,1993,1995,1998,2003,2009,2015,
            Gaussian, Inc.  All Rights Reserved.
  
 This is part of the Gaussian(R) 09 program.  It is based on
 the Gaussian(R) 03 system (copyright 2003, Gaussian, Inc.),
 the Gaussian(R) 98 system (copyright 1998, Gaussian, Inc.),
 the Gaussian(R) 94 system (copyright 1995, Gaussian, Inc.),
 the Gaussian 92(TM) system (copyright 1992, Gaussian, Inc.),
 the Gaussian 90(TM) system (copyright 1990, Gaussian, Inc.),
 the Gaussian 88(TM) system (copyright 1988, Gaussian, Inc.),
 the Gaussian 86(TM) system (copyright 1986, Carnegie Mellon
 University), and the Gaussian 82(TM) system (copyright 1983,
 Carnegie Mellon University). Gaussian is a federally registered
 trademark of Gaussian, Inc.
  
 This software contains proprietary and confidential information,
 including trade secrets, belonging to Gaussian, Inc.
  
 This software is provided under written license and may be
 used, copied, transmitted, or stored only in accord with that
 written license.
  
 The following legend is applicable only to US Government
 contracts under FAR:
  
                    RESTRICTED RIGHTS LEGEND
  
 Use, reproduction and disclosure by the US Government is
 subject to restrictions as set forth in subparagraphs (a)
 and (c) of the Commercial Computer Software - Restricted
 Rights clause in FAR 52.227-19.
  
 Gaussian, Inc.
 340 Quinnipiac St., Bldg. 40, Wallingford CT 06492
  
  
 ---------------------------------------------------------------
 Warning -- This program may not be used in any manner that
 competes with the business of Gaussian, Inc. or will provide
 assistance to any competitor of Gaussian, Inc.  The licensee
 of this program is prohibited from giving any competitor of
 Gaussian, Inc. access to this program.  By using this program,
 the user acknowledges that Gaussian, Inc. is engaged in the
 business of creating and licensing software in the field of
 computational chemistry and represents and warrants to the
 licensee that it is not a competitor of Gaussian, Inc. and that
 it will not use this program in any manner prohibited above.
 ---------------------------------------------------------------
  

 Cite this work as:
 Gaussian 09, Revision E.01,
 M. J. Frisch, G. W. Trucks, H. B. Schlegel, G. E. Scuseria, 
 M. A. Robb, J. R. Cheeseman, G. Scalmani, V. Barone, B. Mennucci, 
 G. A. Petersson, H. Nakatsuji, M. Caricato, X. Li, H. P. Hratchian, 
 A. F. Izmaylov, J. Bloino, G. Zheng, J. L. Sonnenberg, M. Hada, 
 M. Ehara, K. Toyota, R. Fukuda, J. Hasegawa, M. Ishida, T. Nakajima, 
 Y. Honda, O. Kitao, H. Nakai, T. Vreven, J. A. Montgomery, Jr., 
 J. E. Peralta, F. Ogliaro, M. Bearpark, J. J. Heyd, E. Brothers, 
 K. N. Kudin, V. N. Staroverov, T. Keith, R. Kobayashi, J. Normand, 
 K. Raghavachari, A. Rendell, J. C. Burant, S. S. Iyengar, J. Tomasi, 
 M. Cossi, N. Rega, J. M. Millam, M. Klene, J. E. Knox, J. B. Cross, 
 V. Bakken, C. Adamo, J. Jaramillo, R. Gomperts, R. E. Stratmann, 
 O. Yazyev, A. J. Austin, R. Cammi, C. Pomelli, J. W. Ochterski, 
 R. L. Martin, K. Morokuma, V. G. Zakrzewski, G. A. Voth, 
 P. Salvador, J. J. Dannenberg, S. Dapprich, A. D. Daniels, 
 O. Farkas, J. B. Foresman, J. V. Ortiz, J. Cioslowski, 
 and D. J. Fox, Gaussian, Inc., Wallingford CT, 2013.
 
 ******************************************
 Gaussian 09:  EM64L-G09RevE.01 30-Nov-2015
                27-Aug-2021 
 ******************************************
 %nprocshared=64
 Will use up to   64 processors via shared memory.
 %mem=128GB
 %chk=4PY_BLYP_PC2_OPT_FREQ.chk
 --------------------
 #p opt freq BLYP/gen
 --------------------
 1/14=-1,18=20,19=15,26=3,38=1/1,3;
 2/9=110,12=2,17=6,18=5,40=1/2;
 3/5=7,11=2,16=1,25=1,30=1,71=1,74=402/1,2,3;
 4//1;
 5/5=2,38=5/2;
 6/7=2,8=2,9=2,10=2,28=1/1;
 7//1,2,3,16;
 1/14=-1,18=20,19=15,26=3/3(2);
 2/9=110/2;
 99//99;
 2/9=110/2;
 3/5=7,6=1,11=2,16=1,25=1,30=1,71=1,74=402,82=7/1,2,3;
 4/5=5,16=3,69=1/1;
 5/5=2,38=5/2;
 7//1,2,3,16;
 1/14=-1,18=20,19=15,26=3/3(-5);
 2/9=110/2;
 6/7=2,8=2,9=2,10=2,19=2,28=1/1;
 99/9=1/99;
 Leave Link    1 at Fri Aug 27 21:13:21 2021, MaxMem= 17179869184 cpu:         2.6
 (Enter /public3/home/sc51754/softwares/g09e01/l101.exe)
 ---------------------
 4PY_BLYP_PC2_OPT_FREQ
 ---------------------
 Symbolic Z-matrix:
 Charge =  0 Multiplicity = 1
 C                    -0.00018  -1.04887   1.19382 
 C                    -0.00018   0.30655   1.22857 
 C                     0.00022   1.11152   0. 
 C                    -0.00018   0.30655  -1.22857 
 C                    -0.00018  -1.04887  -1.19382 
 N                     0.00002  -1.72968   0. 
 H                    -0.00063  -1.66693   2.08522 
 H                    -0.00059   0.82774   2.17893 
 H                    -0.00059   0.82774  -2.17893 
 H                    -0.00063  -1.66693  -2.08522 
 O                     0.0006    2.34525   0. 
 H                     0.00063  -2.73716   0. 
 
 NAtoms=     12 NQM=       12 NQMF=       0 NMMI=      0 NMMIF=      0
                NMic=       0 NMicF=      0.
                    Isotopes and Nuclear Properties:
 (Nuclear quadrupole moments (NQMom) in fm**2, nuclear magnetic moments (NMagM)
  in nuclear magnetons)

  Atom         1           2           3           4           5           6           7           8           9          10
 IAtWgt=          12          12          12          12          12          14           1           1           1           1
 AtmWgt=  12.0000000  12.0000000  12.0000000  12.0000000  12.0000000  14.0030740   1.0078250   1.0078250   1.0078250   1.0078250
 NucSpn=           0           0           0           0           0           2           1           1           1           1
 AtZEff=   0.0000000   0.0000000   0.0000000   0.0000000   0.0000000   0.0000000   0.0000000   0.0000000   0.0000000   0.0000000
 NQMom=    0.0000000   0.0000000   0.0000000   0.0000000   0.0000000   2.0440000   0.0000000   0.0000000   0.0000000   0.0000000
 NMagM=    0.0000000   0.0000000   0.0000000   0.0000000   0.0000000   0.4037610   2.7928460   2.7928460   2.7928460   2.7928460
 AtZNuc=   6.0000000   6.0000000   6.0000000   6.0000000   6.0000000   7.0000000   1.0000000   1.0000000   1.0000000   1.0000000

  Atom        11          12
 IAtWgt=          16           1
 AtmWgt=  15.9949146   1.0078250
 NucSpn=           0           1
 AtZEff=   0.0000000   0.0000000
 NQMom=    0.0000000   0.0000000
 NMagM=    0.0000000   2.7928460
 AtZNuc=   8.0000000   1.0000000
 Leave Link  101 at Fri Aug 27 21:13:21 2021, MaxMem= 17179869184 cpu:         5.4
 (Enter /public3/home/sc51754/softwares/g09e01/l103.exe)

 GradGradGradGradGradGradGradGradGradGradGradGradGradGradGradGradGradGrad
 Berny optimization.
 Initialization pass.
                           ----------------------------
                           !    Initial Parameters    !
                           ! (Angstroms and Degrees)  !
 --------------------------                            --------------------------
 ! Name  Definition              Value          Derivative Info.                !
 --------------------------------------------------------------------------------
 ! R1    R(1,2)                  1.3559         estimate D2E/DX2                !
 ! R2    R(1,6)                  1.3743         estimate D2E/DX2                !
 ! R3    R(1,7)                  1.0847         estimate D2E/DX2                !
 ! R4    R(2,3)                  1.4688         estimate D2E/DX2                !
 ! R5    R(2,8)                  1.0839         estimate D2E/DX2                !
 ! R6    R(3,4)                  1.4688         estimate D2E/DX2                !
 ! R7    R(3,11)                 1.2337         estimate D2E/DX2                !
 ! R8    R(4,5)                  1.3559         estimate D2E/DX2                !
 ! R9    R(4,9)                  1.0839         estimate D2E/DX2                !
 ! R10   R(5,6)                  1.3743         estimate D2E/DX2                !
 ! R11   R(5,10)                 1.0847         estimate D2E/DX2                !
 ! R12   R(6,12)                 1.0075         estimate D2E/DX2                !
 ! A1    A(2,1,6)              121.1639         estimate D2E/DX2                !
 ! A2    A(2,1,7)              123.267          estimate D2E/DX2                !
 ! A3    A(6,1,7)              115.5691         estimate D2E/DX2                !
 ! A4    A(1,2,3)              121.7645         estimate D2E/DX2                !
 ! A5    A(1,2,8)              120.2096         estimate D2E/DX2                !
 ! A6    A(3,2,8)              118.0259         estimate D2E/DX2                !
 ! A7    A(2,3,4)              113.5338         estimate D2E/DX2                !
 ! A8    A(2,3,11)             123.2331         estimate D2E/DX2                !
 ! A9    A(4,3,11)             123.2331         estimate D2E/DX2                !
 ! A10   A(3,4,5)              121.7645         estimate D2E/DX2                !
 ! A11   A(3,4,9)              118.0259         estimate D2E/DX2                !
 ! A12   A(5,4,9)              120.2096         estimate D2E/DX2                !
 ! A13   A(4,5,6)              121.1639         estimate D2E/DX2                !
 ! A14   A(4,5,10)             123.267          estimate D2E/DX2                !
 ! A15   A(6,5,10)             115.5691         estimate D2E/DX2                !
 ! A16   A(1,6,5)              120.6094         estimate D2E/DX2                !
 ! A17   A(1,6,12)             119.6953         estimate D2E/DX2                !
 ! A18   A(5,6,12)             119.6953         estimate D2E/DX2                !
 ! D1    D(6,1,2,3)             -0.0087         estimate D2E/DX2                !
 ! D2    D(6,1,2,8)            179.9852         estimate D2E/DX2                !
 ! D3    D(7,1,2,3)           -179.9904         estimate D2E/DX2                !
 ! D4    D(7,1,2,8)              0.0035         estimate D2E/DX2                !
 ! D5    D(2,1,6,5)             -0.0199         estimate D2E/DX2                !
 ! D6    D(2,1,6,12)           179.9596         estimate D2E/DX2                !
 ! D7    D(7,1,6,5)            179.9631         estimate D2E/DX2                !
 ! D8    D(7,1,6,12)            -0.0574         estimate D2E/DX2                !
 ! D9    D(1,2,3,4)              0.0339         estimate D2E/DX2                !
 ! D10   D(1,2,3,11)          -179.9797         estimate D2E/DX2                !
 ! D11   D(8,2,3,4)           -179.9602         estimate D2E/DX2                !
 ! D12   D(8,2,3,11)             0.0262         estimate D2E/DX2                !
 ! D13   D(2,3,4,5)             -0.0339         estimate D2E/DX2                !
 ! D14   D(2,3,4,9)            179.9602         estimate D2E/DX2                !
 ! D15   D(11,3,4,5)           179.9797         estimate D2E/DX2                !
 ! D16   D(11,3,4,9)            -0.0262         estimate D2E/DX2                !
 ! D17   D(3,4,5,6)              0.0087         estimate D2E/DX2                !
 ! D18   D(3,4,5,10)           179.9904         estimate D2E/DX2                !
 ! D19   D(9,4,5,6)           -179.9852         estimate D2E/DX2                !
 ! D20   D(9,4,5,10)            -0.0035         estimate D2E/DX2                !
 ! D21   D(4,5,6,1)              0.0199         estimate D2E/DX2                !
 ! D22   D(4,5,6,12)          -179.9596         estimate D2E/DX2                !
 ! D23   D(10,5,6,1)          -179.9631         estimate D2E/DX2                !
 ! D24   D(10,5,6,12)            0.0574         estimate D2E/DX2                !
 --------------------------------------------------------------------------------
 Trust Radius=3.00D-01 FncErr=1.00D-07 GrdErr=1.00D-06
 Number of steps in this run=     64 maximum allowed number of steps=    100.
 GradGradGradGradGradGradGradGradGradGradGradGradGradGradGradGradGradGrad

 Leave Link  103 at Fri Aug 27 21:13:22 2021, MaxMem= 17179869184 cpu:         0.1
 (Enter /public3/home/sc51754/softwares/g09e01/l202.exe)
                          Input orientation:                          
 ---------------------------------------------------------------------
 Center     Atomic      Atomic             Coordinates (Angstroms)
 Number     Number       Type             X           Y           Z
 ---------------------------------------------------------------------
      1          6           0       -0.000184   -1.048866    1.193818
      2          6           0       -0.000184    0.306549    1.228568
      3          6           0        0.000221    1.111516    0.000000
      4          6           0       -0.000184    0.306549   -1.228568
      5          6           0       -0.000184   -1.048866   -1.193818
      6          7           0        0.000018   -1.729678    0.000000
      7          1           0       -0.000630   -1.666925    2.085223
      8          1           0       -0.000587    0.827738    2.178925
      9          1           0       -0.000587    0.827738   -2.178925
     10          1           0       -0.000630   -1.666925   -2.085223
     11          8           0        0.000597    2.345248    0.000000
     12          1           0        0.000630   -2.737158    0.000000
 ---------------------------------------------------------------------
                    Distance matrix (angstroms):
                    1          2          3          4          5
     1  C    0.000000
     2  C    1.355860   0.000000
     3  C    2.468289   1.468792   0.000000
     4  C    2.775807   2.457136   1.468792   0.000000
     5  C    2.387636   2.775807   2.468289   1.355860   0.000000
     6  N    1.374302   2.378150   2.841194   2.378150   1.374302
     7  H    1.084712   2.151385   3.473887   3.856917   3.336781
     8  H    2.119452   1.083890   2.197327   3.447122   3.859668
     9  H    3.859668   3.447122   2.197327   1.083890   2.119452
    10  H    3.336781   3.856917   3.473887   2.151385   1.084712
    11  O    3.597946   2.380268   1.233732   2.380268   3.597946
    12  H    2.067736   3.282306   3.848674   3.282306   2.067736
                    6          7          8          9         10
     6  N    0.000000
     7  H    2.086167   0.000000
     8  H    3.359775   2.496422   0.000000
     9  H    3.359775   4.940273   4.357850   0.000000
    10  H    2.086167   4.170446   4.940273   2.496422   0.000000
    11  O    4.074926   4.521691   2.655288   2.655288   4.521691
    12  H    1.007480   2.343833   4.178062   4.178062   2.343833
                   11         12
    11  O    0.000000
    12  H    5.082406   0.000000
 Stoichiometry    C5H5NO
 Framework group  CS[SG(CHNO),X(C4H4)]
 Deg. of freedom    17
 Full point group                 CS      NOp   2
 Largest Abelian subgroup         CS      NOp   2
 Largest concise Abelian subgroup CS      NOp   2
                         Standard orientation:                         
 ---------------------------------------------------------------------
 Center     Atomic      Atomic             Coordinates (Angstroms)
 Number     Number       Type             X           Y           Z
 ---------------------------------------------------------------------
      1          6           0        0.000184    1.048866    1.193818
      2          6           0        0.000184   -0.306549    1.228568
      3          6           0       -0.000221   -1.111516   -0.000000
      4          6           0        0.000184   -0.306549   -1.228568
      5          6           0        0.000184    1.048866   -1.193818
      6          7           0       -0.000018    1.729678    0.000000
      7          1           0        0.000630    1.666925    2.085223
      8          1           0        0.000587   -0.827738    2.178925
      9          1           0        0.000587   -0.827738   -2.178925
     10          1           0        0.000630    1.666925   -2.085223
     11          8           0       -0.000597   -2.345248   -0.000000
     12          1           0       -0.000630    2.737158    0.000000
 ---------------------------------------------------------------------
 Rotational constants (GHZ):      5.6935111      2.6926956      1.8281082
 Leave Link  202 at Fri Aug 27 21:13:22 2021, MaxMem= 17179869184 cpu:         3.2
 (Enter /public3/home/sc51754/softwares/g09e01/l301.exe)
 General basis read from cards:  (5D, 7F)
 Centers:       7      8      9     10     12
 S 4 1.00
     Exponent=  7.5423000000D+01 Coefficients=  2.4065000000D-03
     Exponent=  1.1350000000D+01 Coefficients=  1.8487000000D-02
     Exponent=  2.5993000000D+00 Coefficients=  8.9742000000D-02
     Exponent=  7.3513000000D-01 Coefficients=  2.8111000000D-01
 S 1 1.00
     Exponent=  2.3167000000D-01 Coefficients=  1.0000000000D+00
 S 1 1.00
     Exponent=  7.4147000000D-02 Coefficients=  1.0000000000D+00
 P 1 1.00
     Exponent=  1.6000000000D+00 Coefficients=  1.0000000000D+00
 P 1 1.00
     Exponent=  4.5000000000D-01 Coefficients=  1.0000000000D+00
 D 1 1.00
     Exponent=  1.2500000000D+00 Coefficients=  1.0000000000D+00
 ****
 Centers:       1      2      3      4      5
 S 7 1.00
     Exponent=  7.8571000000D+03 Coefficients=  5.6825000000D-04
     Exponent=  1.1787000000D+03 Coefficients=  4.3915000000D-03
     Exponent=  2.6832000000D+02 Coefficients=  2.2504000000D-02
     Exponent=  7.5948000000D+01 Coefficients=  8.6653000000D-02
     Exponent=  2.4559000000D+01 Coefficients=  2.4405000000D-01
     Exponent=  8.6212000000D+00 Coefficients=  4.4148000000D-01
     Exponent=  3.1278000000D+00 Coefficients=  3.5332000000D-01
 S 7 1.00
     Exponent=  1.1787000000D+03 Coefficients= -5.9492000000D-07
     Exponent=  2.6832000000D+02 Coefficients= -6.2748000000D-05
     Exponent=  7.5948000000D+01 Coefficients= -7.5773000000D-04
     Exponent=  2.4559000000D+01 Coefficients= -7.3308000000D-03
     Exponent=  8.6212000000D+00 Coefficients= -3.8932000000D-02
     Exponent=  3.1278000000D+00 Coefficients= -8.8908000000D-02
     Exponent=  8.2202000000D-01 Coefficients=  2.1689000000D-01
 S 1 1.00
     Exponent=  3.3017000000D-01 Coefficients=  1.0000000000D+00
 S 1 1.00
     Exponent=  1.1463000000D-01 Coefficients=  1.0000000000D+00
 P 4 1.00
     Exponent=  3.3775000000D+01 Coefficients=  6.0294000000D-03
     Exponent=  7.6766000000D+00 Coefficients=  4.3228000000D-02
     Exponent=  2.2357000000D+00 Coefficients=  1.6301000000D-01
     Exponent=  7.6447000000D-01 Coefficients=  3.6504000000D-01
 P 1 1.00
     Exponent=  2.6232000000D-01 Coefficients=  1.0000000000D+00
 P 1 1.00
     Exponent=  8.4638000000D-02 Coefficients=  1.0000000000D+00
 D 1 1.00
     Exponent=  1.4000000000D+00 Coefficients=  1.0000000000D+00
 D 1 1.00
     Exponent=  4.5000000000D-01 Coefficients=  1.0000000000D+00
 F 1 1.00
     Exponent=  9.5000000000D-01 Coefficients=  1.0000000000D+00
 ****
 Centers:       6
 S 7 1.00
     Exponent=  1.1101000000D+04 Coefficients=  5.4570000000D-04
     Exponent=  1.6653000000D+03 Coefficients=  4.2181000000D-03
     Exponent=  3.7908000000D+02 Coefficients=  2.1645000000D-02
     Exponent=  1.0730000000D+02 Coefficients=  8.3776000000D-02
     Exponent=  3.4747000000D+01 Coefficients=  2.3881000000D-01
     Exponent=  1.2249000000D+01 Coefficients=  4.3994000000D-01
     Exponent=  4.4743000000D+00 Coefficients=  3.6364000000D-01
 S 7 1.00
     Exponent=  1.6653000000D+03 Coefficients= -1.5006000000D-06
     Exponent=  3.7908000000D+02 Coefficients= -5.8753000000D-05
     Exponent=  1.0730000000D+02 Coefficients= -7.7453000000D-04
     Exponent=  3.4747000000D+01 Coefficients= -7.2161000000D-03
     Exponent=  1.2249000000D+01 Coefficients= -3.9338000000D-02
     Exponent=  4.4743000000D+00 Coefficients= -9.0611000000D-02
     Exponent=  1.2404000000D+00 Coefficients=  1.9882000000D-01
 S 1 1.00
     Exponent=  4.8743000000D-01 Coefficients=  1.0000000000D+00
 S 1 1.00
     Exponent=  1.6484000000D-01 Coefficients=  1.0000000000D+00
 P 4 1.00
     Exponent=  4.7934000000D+01 Coefficients=  6.1706000000D-03
     Exponent=  1.0999000000D+01 Coefficients=  4.4260000000D-02
     Exponent=  3.2472000000D+00 Coefficients=  1.6825000000D-01
     Exponent=  1.1114000000D+00 Coefficients=  3.6848000000D-01
 P 1 1.00
     Exponent=  3.7988000000D-01 Coefficients=  1.0000000000D+00
 P 1 1.00
     Exponent=  1.2068000000D-01 Coefficients=  1.0000000000D+00
 D 1 1.00
     Exponent=  1.8000000000D+00 Coefficients=  1.0000000000D+00
 D 1 1.00
     Exponent=  5.5000000000D-01 Coefficients=  1.0000000000D+00
 F 1 1.00
     Exponent=  1.0200000000D+00 Coefficients=  1.0000000000D+00
 ****
 Centers:      11
 S 7 1.00
     Exponent=  1.4782000000D+04 Coefficients=  5.3519000000D-04
     Exponent=  2.2173000000D+03 Coefficients=  4.1375000000D-03
     Exponent=  5.0474000000D+02 Coefficients=  2.1245000000D-02
     Exponent=  1.4287000000D+02 Coefficients=  8.2453000000D-02
     Exponent=  4.6300000000D+01 Coefficients=  2.3671000000D-01
     Exponent=  1.6337000000D+01 Coefficients=  4.4039000000D-01
     Exponent=  5.9828000000D+00 Coefficients=  3.6465000000D-01
 S 7 1.00
     Exponent=  2.2173000000D+03 Coefficients= -1.9275000000D-06
     Exponent=  5.0474000000D+02 Coefficients= -5.7964000000D-05
     Exponent=  1.4287000000D+02 Coefficients= -7.9494000000D-04
     Exponent=  4.6300000000D+01 Coefficients= -7.3125000000D-03
     Exponent=  1.6337000000D+01 Coefficients= -4.0574000000D-02
     Exponent=  5.9828000000D+00 Coefficients= -9.1594000000D-02
     Exponent=  1.6718000000D+00 Coefficients=  2.0940000000D-01
 S 1 1.00
     Exponent=  6.4662000000D-01 Coefficients=  1.0000000000D+00
 S 1 1.00
     Exponent=  2.1669000000D-01 Coefficients=  1.0000000000D+00
 P 4 1.00
     Exponent=  6.0424000000D+01 Coefficients=  6.8949000000D-03
     Exponent=  1.3935000000D+01 Coefficients=  4.9005000000D-02
     Exponent=  4.1531000000D+00 Coefficients=  1.8255000000D-01
     Exponent=  1.4158000000D+00 Coefficients=  3.7633000000D-01
 P 1 1.00
     Exponent=  4.7549000000D-01 Coefficients=  1.0000000000D+00
 P 1 1.00
     Exponent=  1.4529000000D-01 Coefficients=  1.0000000000D+00
 D 1 1.00
     Exponent=  2.2000000000D+00 Coefficients=  1.0000000000D+00
 D 1 1.00
     Exponent=  6.5000000000D-01 Coefficients=  1.0000000000D+00
 F 1 1.00
     Exponent=  1.1000000000D+00 Coefficients=  1.0000000000D+00
 ****
 Ernie: Thresh=  0.10000D-02 Tol=  0.10000D-05 Strict=F.
 Ernie:  7 primitive shells out of 220 were deleted.
 There are   183 symmetry adapted cartesian basis functions of A'  symmetry.
 There are   137 symmetry adapted cartesian basis functions of A"  symmetry.
 There are   158 symmetry adapted basis functions of A'  symmetry.
 There are   122 symmetry adapted basis functions of A"  symmetry.
   280 basis functions,   475 primitive gaussians,   320 cartesian basis functions
    25 alpha electrons       25 beta electrons
       nuclear repulsion energy       273.2804388411 Hartrees.
 IExCor=  402 DFT=T Ex=B Corr=LYP ExCW=0 ScaHFX=  0.000000
 ScaDFX=  1.000000  1.000000  1.000000  1.000000 ScalE2=  1.000000  1.000000
 IRadAn=      0 IRanWt=     -1 IRanGd=            0 ICorTp=0 IEmpDi=  4
 NAtoms=   12 NActive=   12 NUniq=    8 SFac= 2.25D+00 NAtFMM=   60 NAOKFM=F Big=F
 Integral buffers will be    131072 words long.
 Raffenetti 2 integral format.
 Two-electron integral symmetry is turned on.
 Leave Link  301 at Fri Aug 27 21:13:22 2021, MaxMem= 17179869184 cpu:         2.9
 (Enter /public3/home/sc51754/softwares/g09e01/l302.exe)
 NPDir=0 NMtPBC=     1 NCelOv=     1 NCel=       1 NClECP=     1 NCelD=      1
         NCelK=      1 NCelE2=     1 NClLst=     1 CellRange=     0.0.
 One-electron integrals computed using PRISM.
 One-electron integral symmetry used in STVInt
 NBasis=   280 RedAO= T EigKep=  1.83D-04  NBF=   158   122
 NBsUse=   280 1.00D-06 EigRej= -1.00D+00 NBFU=   158   122
 Precomputing XC quadrature grid using
 IXCGrd= 4 IRadAn=           0 IRanWt=          -1 IRanGd=           0 AccXCQ= 0.00D+00.
 Generated NRdTot=       0 NPtTot=           0 NUsed=           0 NTot=          32
 NSgBfM=   320   320   320   320   320 MxSgAt=    12 MxSgA2=    12.
 Leave Link  302 at Fri Aug 27 21:13:23 2021, MaxMem= 17179869184 cpu:        39.5
 (Enter /public3/home/sc51754/softwares/g09e01/l303.exe)
 DipDrv:  MaxL=1.
 Leave Link  303 at Fri Aug 27 21:13:23 2021, MaxMem= 17179869184 cpu:        11.7
 (Enter /public3/home/sc51754/softwares/g09e01/l401.exe)
 ExpMin= 7.41D-02 ExpMax= 1.48D+04 ExpMxC= 5.05D+02 IAcc=2 IRadAn=         4 AccDes= 0.00D+00
 Harris functional with IExCor=  402 and IRadAn=       4 diagonalized for initial guess.
 HarFok:  IExCor=  402 AccDes= 0.00D+00 IRadAn=         4 IDoV= 1 UseB2=F ITyADJ=14
 ICtDFT=  3500011 ScaDFX=  1.000000  1.000000  1.000000  1.000000
 FoFCou: FMM=F IPFlag=           0 FMFlag=      100000 FMFlg1=           0
         NFxFlg=           0 DoJE=T BraDBF=F KetDBF=T FulRan=T
         wScrn=  0.000000 ICntrl=     500 IOpCl=  0 I1Cent=   200000004 NGrid=           0
         NMat0=    1 NMatS0=      1 NMatT0=    0 NMatD0=    1 NMtDS0=    0 NMtDT0=    0
 Petite list used in FoFCou.
 Harris En= -323.685892630574    
 JPrj=0 DoOrth=F DoCkMO=F.
 Initial guess orbital symmetries:
       Occupied  (A') (A') (A") (A') (A") (A') (A') (A') (A') (A')
                 (A") (A") (A') (A') (A") (A') (A') (A") (A') (A')
                 (A") (A') (A") (A") (A')
       Virtual   (A') (A") (A') (A') (A") (A') (A') (A") (A') (A')
                 (A") (A') (A') (A") (A") (A") (A') (A') (A") (A')
                 (A") (A') (A") (A') (A') (A') (A") (A') (A") (A')
                 (A') (A") (A') (A') (A') (A") (A') (A") (A") (A')
                 (A") (A') (A') (A') (A") (A") (A') (A") (A") (A')
                 (A') (A") (A") (A') (A') (A') (A') (A") (A') (A')
                 (A') (A') (A") (A") (A') (A") (A') (A') (A") (A")
                 (A') (A") (A") (A') (A") (A') (A') (A") (A') (A")
                 (A') (A') (A") (A") (A') (A') (A') (A') (A") (A')
                 (A") (A") (A') (A") (A") (A') (A') (A") (A') (A')
                 (A") (A') (A") (A") (A') (A") (A') (A') (A") (A')
                 (A') (A") (A') (A") (A") (A') (A') (A') (A") (A")
                 (A") (A') (A") (A') (A') (A") (A') (A") (A') (A")
                 (A') (A") (A') (A") (A') (A') (A') (A") (A') (A')
                 (A") (A") (A") (A') (A") (A') (A') (A') (A') (A")
                 (A') (A') (A") (A') (A") (A") (A') (A") (A") (A')
                 (A') (A") (A') (A") (A') (A') (A") (A") (A") (A")
                 (A') (A') (A") (A') (A") (A') (A") (A') (A') (A')
                 (A") (A') (A") (A') (A") (A') (A") (A') (A') (A")
                 (A") (A") (A') (A') (A") (A') (A") (A') (A") (A')
                 (A') (A') (A') (A") (A") (A") (A") (A') (A') (A')
                 (A') (A') (A") (A") (A") (A') (A") (A') (A") (A')
                 (A') (A") (A") (A') (A") (A") (A') (A") (A') (A")
                 (A') (A') (A") (A') (A') (A') (A") (A") (A") (A')
                 (A') (A') (A") (A') (A") (A') (A') (A") (A') (A')
                 (A") (A') (A") (A') (A')
 The electronic state of the initial guess is 1-A'.
 Leave Link  401 at Fri Aug 27 21:13:24 2021, MaxMem= 17179869184 cpu:        41.8
 (Enter /public3/home/sc51754/softwares/g09e01/l502.exe)
 Closed shell SCF:
 Using DIIS extrapolation, IDIIS=  1040.
 Integral symmetry usage will be decided dynamically.
 Keep J ints in memory in symmetry-blocked form, NReq=1161351758.
 IVT=      348938 IEndB=      348938 NGot= 17179869184 MDV= 16792355177
 LenX= 16792355177 LenY= 16792252336
 Requested convergence on RMS density matrix=1.00D-08 within 128 cycles.
 Requested convergence on MAX density matrix=1.00D-06.
 Requested convergence on             energy=1.00D-06.
 No special actions if energy rises.
 FoFCou: FMM=F IPFlag=           0 FMFlag=           0 FMFlg1=           0
         NFxFlg=           0 DoJE=F BraDBF=F KetDBF=F FulRan=T
         wScrn=  0.000000 ICntrl=     600 IOpCl=  0 I1Cent=           0 NGrid=           0
         NMat0=    1 NMatS0=  39340 NMatT0=    0 NMatD0=    1 NMtDS0=    0 NMtDT0=    0
 Petite list used in FoFCou.
 Integral accuracy reduced to 1.0D-05 until final iterations.

 Cycle   1  Pass 0  IDiag  1:
 E= -323.333440976577    
 DIIS: error= 3.29D-02 at cycle   1 NSaved=   1.
 NSaved= 1 IEnMin= 1 EnMin= -323.333440976577     IErMin= 1 ErrMin= 3.29D-02
 ErrMax= 3.29D-02  0.00D+00 EMaxC= 1.00D-01 BMatC= 2.18D-01 BMatP= 2.18D-01
 IDIUse=3 WtCom= 6.71D-01 WtEn= 3.29D-01
 Coeff-Com:  0.100D+01
 Coeff-En:   0.100D+01
 Coeff:      0.100D+01
 Gap=    -0.061 Goal=   None    Shift=    0.000
 GapD=   -0.061 DampG=0.250 DampE=0.500 DampFc=0.2500 IDamp=-1.
 Damping current iteration by 2.50D-01
 RMSDP=1.85D-02 MaxDP=2.49D+00              OVMax= 9.83D-01

 Cycle   2  Pass 0  IDiag  1:
 E= -323.257074463184     Delta-E=        0.076366513393 Rises=F Damp=T
 DIIS: error= 1.61D-02 at cycle   2 NSaved=   2.
 NSaved= 2 IEnMin= 1 EnMin= -323.333440976577     IErMin= 2 ErrMin= 1.61D-02
 ErrMax= 1.61D-02  0.00D+00 EMaxC= 1.00D-01 BMatC= 5.64D-02 BMatP= 2.18D-01
 IDIUse=3 WtCom= 8.39D-01 WtEn= 1.61D-01
 Coeff-Com:  0.199D+00 0.801D+00
 Coeff-En:   0.624D+00 0.376D+00
 Coeff:      0.268D+00 0.732D+00
 Gap=     0.034 Goal=   None    Shift=    0.000
 RMSDP=4.77D-03 MaxDP=6.18D-01 DE= 7.64D-02 OVMax= 8.40D-01

 Cycle   3  Pass 0  IDiag  1:
 E= -323.275040382680     Delta-E=       -0.017965919496 Rises=F Damp=F
 DIIS: error= 3.78D-02 at cycle   3 NSaved=   3.
 NSaved= 3 IEnMin= 1 EnMin= -323.333440976577     IErMin= 2 ErrMin= 1.61D-02
 ErrMax= 3.78D-02  0.00D+00 EMaxC= 1.00D-01 BMatC= 2.40D-01 BMatP= 5.64D-02
 IDIUse=2 WtCom= 0.00D+00 WtEn= 1.00D+00
 EnCoef did     4 forward-backward iterations
 Coeff-En:   0.279D+00 0.365D+00 0.356D+00
 Coeff:      0.279D+00 0.365D+00 0.356D+00
 Gap=     0.120 Goal=   None    Shift=    0.000
 RMSDP=3.65D-03 MaxDP=1.34D-01 DE=-1.80D-02 OVMax= 5.62D-01

 Cycle   4  Pass 0  IDiag  1:
 E= -323.261774115056     Delta-E=        0.013266267624 Rises=F Damp=F
 DIIS: error= 4.15D-02 at cycle   4 NSaved=   4.
 NSaved= 4 IEnMin= 1 EnMin= -323.333440976577     IErMin= 2 ErrMin= 1.61D-02
 ErrMax= 4.15D-02  0.00D+00 EMaxC= 1.00D-01 BMatC= 2.96D-01 BMatP= 5.64D-02
 IDIUse=2 WtCom= 0.00D+00 WtEn= 1.00D+00
 EnCoef did     4 forward-backward iterations
 Coeff-En:   0.236D+00 0.000D+00 0.334D+00 0.430D+00
 Coeff:      0.236D+00 0.000D+00 0.334D+00 0.430D+00
 Gap=     0.126 Goal=   None    Shift=    0.000
 RMSDP=2.43D-03 MaxDP=1.01D-01 DE= 1.33D-02 OVMax= 3.14D-01

 Cycle   5  Pass 0  IDiag  1:
 E= -323.537524302437     Delta-E=       -0.275750187382 Rises=F Damp=F
 DIIS: error= 6.30D-03 at cycle   5 NSaved=   5.
 NSaved= 5 IEnMin= 5 EnMin= -323.537524302437     IErMin= 5 ErrMin= 6.30D-03
 ErrMax= 6.30D-03  0.00D+00 EMaxC= 1.00D-01 BMatC= 9.84D-03 BMatP= 5.64D-02
 IDIUse=3 WtCom= 9.37D-01 WtEn= 6.30D-02
 Coeff-Com: -0.403D-02 0.188D+00 0.153D+00 0.115D+00 0.548D+00
 Coeff-En:   0.000D+00 0.000D+00 0.000D+00 0.188D-03 0.100D+01
 Coeff:     -0.377D-02 0.176D+00 0.143D+00 0.108D+00 0.577D+00
 Gap=     0.140 Goal=   None    Shift=    0.000
 RMSDP=3.92D-04 MaxDP=2.42D-02 DE=-2.76D-01 OVMax= 3.62D-02

 Cycle   6  Pass 0  IDiag  1:
 E= -323.540228091005     Delta-E=       -0.002703788568 Rises=F Damp=F
 DIIS: error= 4.77D-03 at cycle   6 NSaved=   6.
 NSaved= 6 IEnMin= 6 EnMin= -323.540228091005     IErMin= 6 ErrMin= 4.77D-03
 ErrMax= 4.77D-03  0.00D+00 EMaxC= 1.00D-01 BMatC= 4.55D-03 BMatP= 9.84D-03
 IDIUse=3 WtCom= 9.52D-01 WtEn= 4.77D-02
 Coeff-Com: -0.744D-01 0.104D+00 0.471D-02 0.196D-01 0.387D+00 0.559D+00
 Coeff-En:   0.000D+00 0.000D+00 0.000D+00 0.000D+00 0.352D+00 0.648D+00
 Coeff:     -0.708D-01 0.987D-01 0.448D-02 0.187D-01 0.386D+00 0.563D+00
 Gap=     0.134 Goal=   None    Shift=    0.000
 RMSDP=2.13D-04 MaxDP=8.83D-03 DE=-2.70D-03 OVMax= 2.47D-02

 Cycle   7  Pass 0  IDiag  1:
 E= -323.544814905910     Delta-E=       -0.004586814905 Rises=F Damp=F
 DIIS: error= 2.56D-03 at cycle   7 NSaved=   7.
 NSaved= 7 IEnMin= 7 EnMin= -323.544814905910     IErMin= 7 ErrMin= 2.56D-03
 ErrMax= 2.56D-03  0.00D+00 EMaxC= 1.00D-01 BMatC= 7.63D-04 BMatP= 4.55D-03
 IDIUse=3 WtCom= 9.74D-01 WtEn= 2.56D-02
 Coeff-Com: -0.429D-01 0.495D-01-0.133D-01 0.168D-01 0.159D+00 0.215D+00
 Coeff-Com:  0.616D+00
 Coeff-En:   0.000D+00 0.000D+00 0.000D+00 0.000D+00 0.000D+00 0.000D+00
 Coeff-En:   0.100D+01
 Coeff:     -0.418D-01 0.482D-01-0.130D-01 0.164D-01 0.155D+00 0.209D+00
 Coeff:      0.626D+00
 Gap=     0.131 Goal=   None    Shift=    0.000
 RMSDP=7.61D-05 MaxDP=2.56D-03 DE=-4.59D-03 OVMax= 1.05D-02

 Cycle   8  Pass 0  IDiag  1:
 E= -323.545488272285     Delta-E=       -0.000673366375 Rises=F Damp=F
 DIIS: error= 1.21D-03 at cycle   8 NSaved=   8.
 NSaved= 8 IEnMin= 8 EnMin= -323.545488272285     IErMin= 8 ErrMin= 1.21D-03
 ErrMax= 1.21D-03  0.00D+00 EMaxC= 1.00D-01 BMatC= 1.87D-04 BMatP= 7.63D-04
 IDIUse=3 WtCom= 9.88D-01 WtEn= 1.21D-02
 Coeff-Com: -0.181D-01 0.185D-01-0.108D-01 0.116D-01 0.363D-01 0.159D-01
 Coeff-Com:  0.291D+00 0.656D+00
 Coeff-En:   0.000D+00 0.000D+00 0.000D+00 0.000D+00 0.000D+00 0.000D+00
 Coeff-En:   0.000D+00 0.100D+01
 Coeff:     -0.179D-01 0.183D-01-0.107D-01 0.115D-01 0.358D-01 0.157D-01
 Coeff:      0.288D+00 0.660D+00
 Gap=     0.128 Goal=   None    Shift=    0.000
 RMSDP=4.76D-05 MaxDP=1.53D-03 DE=-6.73D-04 OVMax= 6.76D-03

 Cycle   9  Pass 0  IDiag  1:
 E= -323.545680085297     Delta-E=       -0.000191813012 Rises=F Damp=F
 DIIS: error= 4.70D-04 at cycle   9 NSaved=   9.
 NSaved= 9 IEnMin= 9 EnMin= -323.545680085297     IErMin= 9 ErrMin= 4.70D-04
 ErrMax= 4.70D-04  0.00D+00 EMaxC= 1.00D-01 BMatC= 3.68D-05 BMatP= 1.87D-04
 IDIUse=3 WtCom= 9.95D-01 WtEn= 4.70D-03
 Coeff-Com: -0.989D-03-0.993D-03-0.434D-02 0.467D-02-0.232D-01-0.666D-01
 Coeff-Com: -0.414D-01 0.544D+00 0.589D+00
 Coeff-En:   0.000D+00 0.000D+00 0.000D+00 0.000D+00 0.000D+00 0.000D+00
 Coeff-En:   0.000D+00 0.000D+00 0.100D+01
 Coeff:     -0.984D-03-0.988D-03-0.432D-02 0.465D-02-0.231D-01-0.663D-01
 Coeff:     -0.412D-01 0.541D+00 0.591D+00
 Gap=     0.127 Goal=   None    Shift=    0.000
 RMSDP=2.60D-05 MaxDP=1.02D-03 DE=-1.92D-04 OVMax= 2.89D-03

 Cycle  10  Pass 0  IDiag  1:
 E= -323.545709314593     Delta-E=       -0.000029229296 Rises=F Damp=F
 DIIS: error= 1.11D-04 at cycle  10 NSaved=  10.
 NSaved=10 IEnMin=10 EnMin= -323.545709314593     IErMin=10 ErrMin= 1.11D-04
 ErrMax= 1.11D-04  0.00D+00 EMaxC= 1.00D-01 BMatC= 2.99D-06 BMatP= 3.68D-05
 IDIUse=3 WtCom= 9.99D-01 WtEn= 1.11D-03
 Coeff-Com: -0.121D-03-0.889D-03-0.241D-02 0.295D-02-0.152D-01-0.429D-01
 Coeff-Com: -0.423D-01 0.338D+00 0.427D+00 0.335D+00
 Coeff-En:   0.000D+00 0.000D+00 0.000D+00 0.000D+00 0.000D+00 0.000D+00
 Coeff-En:   0.000D+00 0.000D+00 0.000D+00 0.100D+01
 Coeff:     -0.121D-03-0.888D-03-0.241D-02 0.295D-02-0.152D-01-0.429D-01
 Coeff:     -0.422D-01 0.338D+00 0.427D+00 0.336D+00
 Gap=     0.127 Goal=   None    Shift=    0.000
 RMSDP=4.45D-06 MaxDP=2.34D-04 DE=-2.92D-05 OVMax= 5.21D-04

 Initial convergence to 1.0D-05 achieved.  Increase integral accuracy.
 Cycle  11  Pass 1  IDiag  1:
 E= -323.545775524415     Delta-E=       -0.000066209822 Rises=F Damp=F
 DIIS: error= 5.22D-05 at cycle   1 NSaved=   1.
 NSaved= 1 IEnMin= 1 EnMin= -323.545775524415     IErMin= 1 ErrMin= 5.22D-05
 ErrMax= 5.22D-05  0.00D+00 EMaxC= 1.00D-01 BMatC= 3.58D-07 BMatP= 3.58D-07
 IDIUse=1 WtCom= 1.00D+00 WtEn= 0.00D+00
 Coeff-Com:  0.100D+01
 Coeff:      0.100D+01
 Gap=     0.127 Goal=   None    Shift=    0.000
 RMSDP=4.45D-06 MaxDP=2.34D-04 DE=-6.62D-05 OVMax= 3.74D-04

 Cycle  12  Pass 1  IDiag  1:
 E= -323.545775876598     Delta-E=       -0.000000352183 Rises=F Damp=F
 DIIS: error= 2.47D-05 at cycle   2 NSaved=   2.
 NSaved= 2 IEnMin= 2 EnMin= -323.545775876598     IErMin= 2 ErrMin= 2.47D-05
 ErrMax= 2.47D-05  0.00D+00 EMaxC= 1.00D-01 BMatC= 1.35D-07 BMatP= 3.58D-07
 IDIUse=1 WtCom= 1.00D+00 WtEn= 0.00D+00
 Coeff-Com:  0.325D+00 0.675D+00
 Coeff:      0.325D+00 0.675D+00
 Gap=     0.127 Goal=   None    Shift=    0.000
 RMSDP=1.83D-06 MaxDP=9.41D-05 DE=-3.52D-07 OVMax= 2.66D-04

 Cycle  13  Pass 1  IDiag  1:
 E= -323.545775820427     Delta-E=        0.000000056171 Rises=F Damp=F
 DIIS: error= 3.07D-05 at cycle   3 NSaved=   3.
 NSaved= 3 IEnMin= 2 EnMin= -323.545775876598     IErMin= 2 ErrMin= 2.47D-05
 ErrMax= 3.07D-05  0.00D+00 EMaxC= 1.00D-01 BMatC= 2.15D-07 BMatP= 1.35D-07
 IDIUse=1 WtCom= 1.00D+00 WtEn= 0.00D+00
 Coeff-Com:  0.245D-01 0.551D+00 0.425D+00
 Coeff:      0.245D-01 0.551D+00 0.425D+00
 Gap=     0.127 Goal=   None    Shift=    0.000
 RMSDP=1.32D-06 MaxDP=6.14D-05 DE= 5.62D-08 OVMax= 1.65D-04

 Cycle  14  Pass 1  IDiag  1:
 E= -323.545775976707     Delta-E=       -0.000000156281 Rises=F Damp=F
 DIIS: error= 1.02D-05 at cycle   4 NSaved=   4.
 NSaved= 4 IEnMin= 4 EnMin= -323.545775976707     IErMin= 4 ErrMin= 1.02D-05
 ErrMax= 1.02D-05  0.00D+00 EMaxC= 1.00D-01 BMatC= 1.83D-08 BMatP= 1.35D-07
 IDIUse=1 WtCom= 1.00D+00 WtEn= 0.00D+00
 Coeff-Com: -0.489D-02 0.364D+00 0.308D+00 0.333D+00
 Coeff:     -0.489D-02 0.364D+00 0.308D+00 0.333D+00
 Gap=     0.127 Goal=   None    Shift=    0.000
 RMSDP=4.58D-07 MaxDP=2.23D-05 DE=-1.56D-07 OVMax= 6.01D-05

 Cycle  15  Pass 1  IDiag  1:
 E= -323.545775990418     Delta-E=       -0.000000013711 Rises=F Damp=F
 DIIS: error= 2.27D-06 at cycle   5 NSaved=   5.
 NSaved= 5 IEnMin= 5 EnMin= -323.545775990418     IErMin= 5 ErrMin= 2.27D-06
 ErrMax= 2.27D-06  0.00D+00 EMaxC= 1.00D-01 BMatC= 1.00D-09 BMatP= 1.83D-08
 IDIUse=1 WtCom= 1.00D+00 WtEn= 0.00D+00
 Coeff-Com: -0.455D-02 0.193D+00 0.164D+00 0.231D+00 0.417D+00
 Coeff:     -0.455D-02 0.193D+00 0.164D+00 0.231D+00 0.417D+00
 Gap=     0.127 Goal=   None    Shift=    0.000
 RMSDP=1.36D-07 MaxDP=5.39D-06 DE=-1.37D-08 OVMax= 2.64D-05

 Cycle  16  Pass 1  IDiag  1:
 E= -323.545775991021     Delta-E=       -0.000000000603 Rises=F Damp=F
 DIIS: error= 1.16D-06 at cycle   6 NSaved=   6.
 NSaved= 6 IEnMin= 6 EnMin= -323.545775991021     IErMin= 6 ErrMin= 1.16D-06
 ErrMax= 1.16D-06  0.00D+00 EMaxC= 1.00D-01 BMatC= 3.31D-10 BMatP= 1.00D-09
 IDIUse=1 WtCom= 1.00D+00 WtEn= 0.00D+00
 Coeff-Com: -0.287D-02 0.100D+00 0.839D-01 0.134D+00 0.348D+00 0.337D+00
 Coeff:     -0.287D-02 0.100D+00 0.839D-01 0.134D+00 0.348D+00 0.337D+00
 Gap=     0.127 Goal=   None    Shift=    0.000
 RMSDP=5.80D-08 MaxDP=1.95D-06 DE=-6.03D-10 OVMax= 1.04D-05

 Cycle  17  Pass 1  IDiag  1:
 E= -323.545775991376     Delta-E=       -0.000000000354 Rises=F Damp=F
 DIIS: error= 2.31D-07 at cycle   7 NSaved=   7.
 NSaved= 7 IEnMin= 7 EnMin= -323.545775991376     IErMin= 7 ErrMin= 2.31D-07
 ErrMax= 2.31D-07  0.00D+00 EMaxC= 1.00D-01 BMatC= 1.03D-11 BMatP= 3.31D-10
 IDIUse=1 WtCom= 1.00D+00 WtEn= 0.00D+00
 Coeff-Com: -0.120D-02 0.404D-01 0.335D-01 0.585D-01 0.176D+00 0.204D+00
 Coeff-Com:  0.489D+00
 Coeff:     -0.120D-02 0.404D-01 0.335D-01 0.585D-01 0.176D+00 0.204D+00
 Coeff:      0.489D+00
 Gap=     0.127 Goal=   None    Shift=    0.000
 RMSDP=1.51D-08 MaxDP=4.94D-07 DE=-3.54D-10 OVMax= 1.57D-06

 Cycle  18  Pass 1  IDiag  1:
 E= -323.545775991391     Delta-E=       -0.000000000015 Rises=F Damp=F
 DIIS: error= 6.26D-08 at cycle   8 NSaved=   8.
 NSaved= 8 IEnMin= 8 EnMin= -323.545775991391     IErMin= 8 ErrMin= 6.26D-08
 ErrMax= 6.26D-08  0.00D+00 EMaxC= 1.00D-01 BMatC= 7.21D-13 BMatP= 1.03D-11
 IDIUse=1 WtCom= 1.00D+00 WtEn= 0.00D+00
 Coeff-Com: -0.137D-03 0.447D-02 0.361D-02 0.772D-02 0.328D-01 0.356D-01
 Coeff-Com:  0.235D+00 0.681D+00
 Coeff:     -0.137D-03 0.447D-02 0.361D-02 0.772D-02 0.328D-01 0.356D-01
 Coeff:      0.235D+00 0.681D+00
 Gap=     0.127 Goal=   None    Shift=    0.000
 RMSDP=4.20D-09 MaxDP=1.32D-07 DE=-1.51D-11 OVMax= 5.80D-07

 SCF Done:  E(RB-LYP) =  -323.545775991     A.U. after   18 cycles
            NFock= 18  Conv=0.42D-08     -V/T= 2.0027
 KE= 3.226716666188D+02 PE=-1.302053763018D+03 EE= 3.825558815665D+02
 Leave Link  502 at Fri Aug 27 21:13:30 2021, MaxMem= 17179869184 cpu:       244.2
 (Enter /public3/home/sc51754/softwares/g09e01/l601.exe)
 Copying SCF densities to generalized density rwf, IOpCl= 0 IROHF=0.

 **********************************************************************

            Population analysis using the SCF density.

 **********************************************************************

 Orbital symmetries:
       Occupied  (A') (A') (A") (A') (A') (A") (A') (A') (A') (A')
                 (A") (A") (A') (A') (A") (A') (A") (A') (A') (A")
                 (A') (A') (A") (A') (A")
       Virtual   (A") (A') (A') (A") (A') (A") (A') (A') (A') (A')
                 (A") (A') (A') (A") (A") (A") (A') (A') (A") (A')
                 (A") (A') (A") (A') (A') (A') (A") (A') (A") (A')
                 (A') (A') (A") (A') (A') (A') (A") (A") (A") (A")
                 (A') (A') (A') (A") (A') (A") (A') (A") (A") (A')
                 (A') (A") (A') (A") (A') (A') (A") (A') (A') (A')
                 (A') (A") (A") (A') (A') (A") (A') (A') (A") (A")
                 (A') (A') (A") (A") (A") (A') (A') (A") (A") (A')
                 (A') (A') (A") (A") (A') (A') (A') (A') (A") (A')
                 (A") (A") (A') (A') (A") (A") (A') (A') (A") (A')
                 (A") (A') (A") (A") (A') (A") (A') (A') (A") (A')
                 (A') (A") (A') (A") (A") (A') (A') (A') (A") (A")
                 (A") (A') (A") (A') (A') (A") (A') (A") (A') (A')
                 (A") (A") (A') (A") (A') (A') (A') (A") (A') (A')
                 (A") (A") (A") (A') (A") (A') (A') (A') (A') (A")
                 (A') (A") (A') (A') (A") (A') (A") (A") (A") (A')
                 (A') (A") (A') (A") (A") (A') (A") (A') (A") (A")
                 (A') (A') (A") (A') (A') (A') (A") (A") (A') (A")
                 (A') (A') (A') (A") (A') (A") (A") (A') (A') (A")
                 (A") (A') (A") (A") (A') (A') (A') (A") (A') (A")
                 (A') (A') (A') (A") (A") (A") (A') (A") (A') (A')
                 (A') (A") (A') (A") (A") (A') (A") (A') (A') (A")
                 (A') (A") (A") (A') (A") (A") (A') (A") (A') (A")
                 (A') (A') (A") (A') (A') (A") (A') (A") (A") (A')
                 (A') (A") (A') (A') (A") (A') (A') (A") (A') (A')
                 (A") (A') (A") (A') (A')
 The electronic state is 1-A'.
 Alpha  occ. eigenvalues --  -18.71622 -14.08231  -9.97204  -9.97203  -9.96812
 Alpha  occ. eigenvalues --   -9.91471  -9.91470  -0.91211  -0.89970  -0.71320
 Alpha  occ. eigenvalues --   -0.71253  -0.58613  -0.56178  -0.53480  -0.45341
 Alpha  occ. eigenvalues --   -0.42678  -0.40826  -0.39423  -0.38922  -0.33376
 Alpha  occ. eigenvalues --   -0.33114  -0.32057  -0.25646  -0.19872  -0.17982
 Alpha virt. eigenvalues --   -0.05281  -0.05179  -0.03432   0.01145   0.02422
 Alpha virt. eigenvalues --    0.05534   0.05686   0.08297   0.10023   0.12743
 Alpha virt. eigenvalues --    0.13008   0.13048   0.13694   0.16334   0.16421
 Alpha virt. eigenvalues --    0.19670   0.19716   0.20061   0.24475   0.24915
 Alpha virt. eigenvalues --    0.24952   0.26210   0.26645   0.26798   0.27638
 Alpha virt. eigenvalues --    0.28548   0.30527   0.31365   0.32423   0.36383
 Alpha virt. eigenvalues --    0.39573   0.40276   0.41287   0.42055   0.44844
 Alpha virt. eigenvalues --    0.46040   0.46724   0.50994   0.51725   0.53545
 Alpha virt. eigenvalues --    0.54018   0.56002   0.60539   0.61554   0.65409
 Alpha virt. eigenvalues --    0.67188   0.67427   0.70802   0.73902   0.75814
 Alpha virt. eigenvalues --    0.76212   0.80359   0.85078   0.85297   0.85690
 Alpha virt. eigenvalues --    0.89787   0.92892   0.92942   0.94184   1.01051
 Alpha virt. eigenvalues --    1.04232   1.05693   1.05963   1.06048   1.08252
 Alpha virt. eigenvalues --    1.11241   1.12783   1.14539   1.15477   1.16708
 Alpha virt. eigenvalues --    1.18036   1.18557   1.20162   1.21893   1.26883
 Alpha virt. eigenvalues --    1.27778   1.27970   1.35792   1.36724   1.38196
 Alpha virt. eigenvalues --    1.39462   1.40524   1.40962   1.41006   1.48504
 Alpha virt. eigenvalues --    1.50111   1.52439   1.56898   1.58343   1.58651
 Alpha virt. eigenvalues --    1.60479   1.62512   1.67628   1.69765   1.70039
 Alpha virt. eigenvalues --    1.71031   1.75028   1.75119   1.76588   1.82457
 Alpha virt. eigenvalues --    1.83591   1.87095   1.88899   1.93712   1.95921
 Alpha virt. eigenvalues --    1.96632   2.02734   2.04687   2.08597   2.10837
 Alpha virt. eigenvalues --    2.12502   2.14382   2.16502   2.19413   2.31969
 Alpha virt. eigenvalues --    2.32137   2.41645   2.42924   2.55147   2.70942
 Alpha virt. eigenvalues --    2.78581   2.82369   2.85952   2.86701   3.03526
 Alpha virt. eigenvalues --    3.08443   3.11239   3.12655   3.15345   3.15797
 Alpha virt. eigenvalues --    3.18369   3.21641   3.24029   3.27097   3.27759
 Alpha virt. eigenvalues --    3.35458   3.37269   3.41940   3.44335   3.46382
 Alpha virt. eigenvalues --    3.49955   3.54567   3.55237   3.56466   3.57680
 Alpha virt. eigenvalues --    3.59114   3.61275   3.67681   3.73312   3.79810
 Alpha virt. eigenvalues --    3.86101   3.86644   3.87265   3.88120   3.89741
 Alpha virt. eigenvalues --    3.92480   3.93505   3.94624   3.99101   3.99820
 Alpha virt. eigenvalues --    4.00049   4.02562   4.02804   4.05608   4.09373
 Alpha virt. eigenvalues --    4.10015   4.10661   4.11175   4.13598   4.14390
 Alpha virt. eigenvalues --    4.14521   4.18303   4.20198   4.20834   4.21282
 Alpha virt. eigenvalues --    4.23474   4.24008   4.25232   4.28954   4.29557
 Alpha virt. eigenvalues --    4.30817   4.32755   4.36172   4.37094   4.38473
 Alpha virt. eigenvalues --    4.38655   4.43707   4.44181   4.45410   4.47580
 Alpha virt. eigenvalues --    4.52168   4.52342   4.52913   4.57126   4.57493
 Alpha virt. eigenvalues --    4.62280   4.67207   4.68844   4.69084   4.70229
 Alpha virt. eigenvalues --    4.77469   4.85066   4.85335   4.85979   4.87155
 Alpha virt. eigenvalues --    4.90121   4.98718   4.99927   5.02380   5.09885
 Alpha virt. eigenvalues --    5.10294   5.15217   5.17865   5.18649   5.20383
 Alpha virt. eigenvalues --    5.24444   5.25362   5.33270   5.34901   5.34924
 Alpha virt. eigenvalues --    5.37785   5.39463   5.46868   5.50485   5.51404
 Alpha virt. eigenvalues --    5.51464   5.58513   5.60361   5.63127   5.67432
 Alpha virt. eigenvalues --    5.68618   5.79803   5.82130   5.84975   5.86448
 Alpha virt. eigenvalues --    5.98410   5.99853   6.04694   6.07145   6.14467
 Alpha virt. eigenvalues --    6.25742   6.40395   6.41465   6.41869   6.72875
 Alpha virt. eigenvalues --    6.78675   6.84790   7.11136   9.35582  12.25023
 Alpha virt. eigenvalues --   12.40480  15.13626  16.76541  18.21163  22.35086
          Condensed to atoms (all electrons):
               1          2          3          4          5          6
     1  C    4.812907   0.497386  -0.029526  -0.032194  -0.071601   0.362588
     2  C    0.497386   5.097307   0.362572  -0.035411  -0.032194  -0.066698
     3  C   -0.029526   0.362572   4.520406   0.362572  -0.029526  -0.012186
     4  C   -0.032194  -0.035411   0.362572   5.097307   0.497386  -0.066698
     5  C   -0.071601  -0.032194  -0.029526   0.497386   4.812907   0.362588
     6  N    0.362588  -0.066698  -0.012186  -0.066698   0.362588   6.305102
     7  H    0.403935  -0.023179   0.004842  -0.006679   0.007822  -0.040600
     8  H   -0.041769   0.420877  -0.042550   0.017416  -0.001551   0.004773
     9  H   -0.001551   0.017416  -0.042550   0.420877  -0.041769   0.004773
    10  H    0.007822  -0.006679   0.004842  -0.023179   0.403935  -0.040600
    11  O    0.011750  -0.104910   0.585473  -0.104910   0.011750   0.000807
    12  H   -0.037009   0.008019  -0.001267   0.008019  -0.037009   0.406937
               7          8          9         10         11         12
     1  C    0.403935  -0.041769  -0.001551   0.007822   0.011750  -0.037009
     2  C   -0.023179   0.420877   0.017416  -0.006679  -0.104910   0.008019
     3  C    0.004842  -0.042550  -0.042550   0.004842   0.585473  -0.001267
     4  C   -0.006679   0.017416   0.420877  -0.023179  -0.104910   0.008019
     5  C    0.007822  -0.001551  -0.041769   0.403935   0.011750  -0.037009
     6  N   -0.040600   0.004773   0.004773  -0.040600   0.000807   0.406937
     7  H    0.617210  -0.009595   0.000471  -0.001202  -0.001054  -0.009930
     8  H   -0.009595   0.584793  -0.000110   0.000471   0.011668  -0.000590
     9  H    0.000471  -0.000110   0.584793  -0.009595   0.011668  -0.000590
    10  H   -0.001202   0.000471  -0.009595   0.617210  -0.001054  -0.009930
    11  O   -0.001054   0.011668   0.011668  -0.001054   8.015380   0.000104
    12  H   -0.009930  -0.000590  -0.000590  -0.009930   0.000104   0.526446
 Mulliken charges:
               1
     1  C    0.117263
     2  C   -0.134507
     3  C    0.316897
     4  C   -0.134507
     5  C    0.117263
     6  N   -0.220786
     7  H    0.057959
     8  H    0.056167
     9  H    0.056167
    10  H    0.057959
    11  O   -0.436674
    12  H    0.146799
 Sum of Mulliken charges =  -0.00000
 Mulliken charges with hydrogens summed into heavy atoms:
               1
     1  C    0.175222
     2  C   -0.078340
     3  C    0.316897
     4  C   -0.078340
     5  C    0.175222
     6  N   -0.073988
    11  O   -0.436674
 Electronic spatial extent (au):  <R**2>=            642.4717
 Charge=             -0.0000 electrons
 Dipole moment (field-independent basis, Debye):
    X=              0.0013    Y=              6.8503    Z=             -0.0000  Tot=              6.8503
 Quadrupole moment (field-independent basis, Debye-Ang):
   XX=            -43.4055   YY=            -43.1152   ZZ=            -35.4718
   XY=             -0.0053   XZ=              0.0000   YZ=              0.0000
 Traceless Quadrupole moment (field-independent basis, Debye-Ang):
   XX=             -2.7414   YY=             -2.4510   ZZ=              5.1924
   XY=             -0.0053   XZ=              0.0000   YZ=              0.0000
 Octapole moment (field-independent basis, Debye-Ang**2):
  XXX=             -0.0037  YYY=             56.7477  ZZZ=              0.0000  XYY=              0.0023
  XXY=             -2.1612  XXZ=              0.0000  XZZ=              0.0084  YZZ=              3.3600
  YYZ=             -0.0000  XYZ=              0.0000
 Hexadecapole moment (field-independent basis, Debye-Ang**3):
 XXXX=            -49.1809 YYYY=           -504.5012 ZZZZ=           -274.2164 XXXY=             -0.0323
 XXXZ=              0.0000 YYYX=             -0.0740 YYYZ=              0.0000 ZZZX=             -0.0000
 ZZZY=              0.0000 XXYY=            -94.0574 XXZZ=            -65.9695 YYZZ=           -121.2980
 XXYZ=             -0.0000 YYXZ=              0.0000 ZZXY=             -0.0070
 N-N= 2.732804388411D+02 E-N=-1.302053771138D+03  KE= 3.226716666188D+02
 Symmetry A'   KE= 2.366395948472D+02
 Symmetry A"   KE= 8.603207177160D+01
 No NMR shielding tensors so no spin-rotation constants.
 Leave Link  601 at Fri Aug 27 21:13:32 2021, MaxMem= 17179869184 cpu:       123.6
 (Enter /public3/home/sc51754/softwares/g09e01/l701.exe)
 Compute integral first derivatives.
 ... and contract with generalized density number  0.
 Leave Link  701 at Fri Aug 27 21:13:34 2021, MaxMem= 17179869184 cpu:        80.9
 (Enter /public3/home/sc51754/softwares/g09e01/l702.exe)
 L702 exits ... SP integral derivatives will be done elsewhere.
 Leave Link  702 at Fri Aug 27 21:13:34 2021, MaxMem= 17179869184 cpu:         0.3
 (Enter /public3/home/sc51754/softwares/g09e01/l703.exe)
 Compute integral first derivatives, UseDBF=F ICtDFT=           0.
 Integral derivatives from FoFJK, PRISM(SPDF).
 Calling FoFJK, ICntrl=      2527 FMM=F ISym2X=1 I1Cent= 0 IOpClX= 0 NMat=1 NMatS=1 NMatT=0.
 FoFJK:  IHMeth= 1 ICntrl=    2527 DoSepK=F KAlg= 0 I1Cent=   0 FoldK=F
 IRaf=         0 NMat=   1 IRICut=       1 DoRegI=T DoRafI=F ISym2E= 1.
 FoFCou: FMM=F IPFlag=           0 FMFlag=      100000 FMFlg1=         800
         NFxFlg=           0 DoJE=F BraDBF=F KetDBF=F FulRan=T
         wScrn=  0.000000 ICntrl=    2527 IOpCl=  0 I1Cent=           0 NGrid=           0
         NMat0=    1 NMatS0=      1 NMatT0=    0 NMatD0=    1 NMtDS0=    0 NMtDT0=    0
 Petite list used in FoFCou.
 Leave Link  703 at Fri Aug 27 21:13:35 2021, MaxMem= 17179869184 cpu:        78.5
 (Enter /public3/home/sc51754/softwares/g09e01/l716.exe)
 Dipole        = 5.01959894D-04 2.69512375D+00 8.86536813D-16
 ***** Axes restored to original set *****
 -------------------------------------------------------------------
 Center     Atomic                   Forces (Hartrees/Bohr)
 Number     Number              X              Y              Z
 -------------------------------------------------------------------
      1        6          -0.000006090   -0.002234394    0.003901275
      2        6          -0.000000261    0.002759775    0.000752425
      3        6          -0.000018375   -0.009179145   -0.000000000
      4        6          -0.000000261    0.002759775   -0.000752425
      5        6          -0.000006090   -0.002234394   -0.003901275
      6        7           0.000000300   -0.001014705    0.000000000
      7        1           0.000012333   -0.001069352    0.001348736
      8        1           0.000005208    0.000771425    0.001649040
      9        1           0.000005208    0.000771425   -0.001649040
     10        1           0.000012333   -0.001069352   -0.001348736
     11        8           0.000006509    0.013438486   -0.000000000
     12        1          -0.000010814   -0.003699544   -0.000000000
 -------------------------------------------------------------------
 Cartesian Forces:  Max     0.013438486 RMS     0.003113192
 Leave Link  716 at Fri Aug 27 21:13:35 2021, MaxMem= 17179869184 cpu:         0.3
 (Enter /public3/home/sc51754/softwares/g09e01/l103.exe)

 GradGradGradGradGradGradGradGradGradGradGradGradGradGradGradGradGradGrad
 Berny optimization.
 FormGI is forming the generalized inverse of G from B-inverse, IUseBI=4.
 Internal  Forces:  Max     0.013438487 RMS     0.002559671
 Search for a local minimum.
 Step number   1 out of a maximum of   64
 All quantities printed in internal units (Hartrees-Bohrs-Radians)
 RMS Force = .25597D-02 SwitMx=.10000D-02 MixMth= 1
 Mixed Optimization -- RFO/linear search
 Second derivative matrix not updated -- first step.
 ITU=  0
     Eigenvalues ---    0.01179   0.01465   0.01838   0.01956   0.02032
     Eigenvalues ---    0.02219   0.02234   0.02399   0.02441   0.16000
     Eigenvalues ---    0.16000   0.16000   0.16000   0.16000   0.22000
     Eigenvalues ---    0.22000   0.23391   0.25000   0.34645   0.35229
     Eigenvalues ---    0.35431   0.35431   0.35528   0.35528   0.46397
     Eigenvalues ---    0.47941   0.48075   0.51510   0.53792   0.89549
 RFO step:  Lambda=-5.74080506D-04 EMin= 1.17876314D-02
 Linear search not attempted -- first point.
 Iteration  1 RMS(Cart)=  0.00690484 RMS(Int)=  0.00000279
 Iteration  2 RMS(Cart)=  0.00000250 RMS(Int)=  0.00000044
 Iteration  3 RMS(Cart)=  0.00000000 RMS(Int)=  0.00000044
 ITry= 1 IFail=0 DXMaxC= 2.59D-02 DCOld= 1.00D+10 DXMaxT= 3.00D-01 DXLimC= 3.00D+00 Rises=F
 ClnCor:  largest displacement from symmetrization is 7.12D-12 for atom    10.
 Variable       Old X    -DE/DX   Delta X   Delta X   Delta X     New X
                                 (Linear)    (Quad)   (Total)
    R1        2.56220   0.00564   0.00000   0.01049   0.01049   2.57270
    R2        2.59705   0.00523   0.00000   0.01074   0.01074   2.60780
    R3        2.04981   0.00172   0.00000   0.00484   0.00484   2.05465
    R4        2.77562   0.00366   0.00000   0.00973   0.00973   2.78535
    R5        2.04825   0.00182   0.00000   0.00511   0.00511   2.05336
    R6        2.77562   0.00366   0.00000   0.00973   0.00973   2.78535
    R7        2.33142   0.01344   0.00000   0.01500   0.01500   2.34641
    R8        2.56220   0.00564   0.00000   0.01049   0.01049   2.57270
    R9        2.04825   0.00182   0.00000   0.00511   0.00511   2.05336
   R10        2.59705   0.00523   0.00000   0.01074   0.01074   2.60780
   R11        2.04981   0.00172   0.00000   0.00484   0.00484   2.05465
   R12        1.90386   0.00370   0.00000   0.00796   0.00796   1.91183
    A1        2.11471  -0.00057   0.00000  -0.00183  -0.00183   2.11288
    A2        2.15142   0.00040   0.00000   0.00162   0.00162   2.15304
    A3        2.01706   0.00017   0.00000   0.00021   0.00021   2.01727
    A4        2.12519   0.00051   0.00000   0.00156   0.00156   2.12676
    A5        2.09805  -0.00037   0.00000  -0.00153  -0.00153   2.09653
    A6        2.05994  -0.00013   0.00000  -0.00004  -0.00004   2.05990
    A7        1.98154   0.00015   0.00000  -0.00082  -0.00082   1.98072
    A8        2.15082  -0.00008   0.00000   0.00041   0.00041   2.15123
    A9        2.15082  -0.00008   0.00000   0.00041   0.00041   2.15123
   A10        2.12519   0.00051   0.00000   0.00156   0.00156   2.12676
   A11        2.05994  -0.00013   0.00000  -0.00004  -0.00004   2.05990
   A12        2.09805  -0.00037   0.00000  -0.00153  -0.00153   2.09653
   A13        2.11471  -0.00057   0.00000  -0.00183  -0.00183   2.11288
   A14        2.15142   0.00040   0.00000   0.00162   0.00162   2.15304
   A15        2.01706   0.00017   0.00000   0.00021   0.00021   2.01727
   A16        2.10503  -0.00003   0.00000   0.00136   0.00136   2.10639
   A17        2.08908   0.00001   0.00000  -0.00068  -0.00068   2.08840
   A18        2.08908   0.00001   0.00000  -0.00068  -0.00068   2.08840
    D1       -0.00015   0.00000   0.00000   0.00009   0.00009  -0.00006
    D2        3.14133   0.00000   0.00000   0.00018   0.00018   3.14152
    D3       -3.14143  -0.00000   0.00000  -0.00013  -0.00013  -3.14156
    D4        0.00006  -0.00000   0.00000  -0.00004  -0.00004   0.00003
    D5       -0.00035   0.00001   0.00000   0.00035   0.00035   0.00000
    D6        3.14089   0.00000   0.00000   0.00016   0.00016   3.14104
    D7        3.14095   0.00001   0.00000   0.00056   0.00056   3.14151
    D8       -0.00100   0.00001   0.00000   0.00036   0.00036  -0.00064
    D9        0.00059  -0.00001   0.00000  -0.00048  -0.00048   0.00011
   D10       -3.14124   0.00000   0.00000   0.00014   0.00014  -3.14110
   D11       -3.14090  -0.00001   0.00000  -0.00057  -0.00057  -3.14147
   D12        0.00046  -0.00000   0.00000   0.00005   0.00005   0.00051
   D13       -0.00059   0.00001   0.00000   0.00048   0.00048  -0.00011
   D14        3.14090   0.00001   0.00000   0.00057   0.00057   3.14147
   D15        3.14124  -0.00000   0.00000  -0.00014  -0.00014   3.14110
   D16       -0.00046   0.00000   0.00000  -0.00005  -0.00005  -0.00051
   D17        0.00015  -0.00000   0.00000  -0.00009  -0.00009   0.00006
   D18        3.14143   0.00000   0.00000   0.00013   0.00013   3.14156
   D19       -3.14133  -0.00000   0.00000  -0.00018  -0.00018  -3.14152
   D20       -0.00006   0.00000   0.00000   0.00004   0.00004  -0.00003
   D21        0.00035  -0.00001   0.00000  -0.00035  -0.00035  -0.00000
   D22       -3.14089  -0.00000   0.00000  -0.00016  -0.00016  -3.14104
   D23       -3.14095  -0.00001   0.00000  -0.00056  -0.00056  -3.14151
   D24        0.00100  -0.00001   0.00000  -0.00036  -0.00036   0.00064
         Item               Value     Threshold  Converged?
 Maximum Force            0.013438     0.000450     NO 
 RMS     Force            0.002560     0.000300     NO 
 Maximum Displacement     0.025857     0.001800     NO 
 RMS     Displacement     0.006905     0.001200     NO 
 Predicted change in Energy=-2.873410D-04
 Lowest energy point so far.  Saving SCF results.
 GradGradGradGradGradGradGradGradGradGradGradGradGradGradGradGradGradGrad

 Leave Link  103 at Fri Aug 27 21:13:37 2021, MaxMem= 17179869184 cpu:        74.8
 (Enter /public3/home/sc51754/softwares/g09e01/l202.exe)
                          Input orientation:                          
 ---------------------------------------------------------------------
 Center     Atomic      Atomic             Coordinates (Angstroms)
 Number     Number       Type             X           Y           Z
 ---------------------------------------------------------------------
      1          6           0       -0.000213   -1.052036    1.199220
      2          6           0       -0.000210    0.308968    1.232543
      3          6           0       -0.000132    1.117263    0.000000
      4          6           0       -0.000210    0.308968   -1.232543
      5          6           0       -0.000213   -1.052036   -1.199220
      6          7           0       -0.000218   -1.734850   -0.000000
      7          1           0       -0.000303   -1.671972    2.092441
      8          1           0       -0.000275    0.831101    2.185463
      9          1           0       -0.000275    0.831101   -2.185463
     10          1           0       -0.000303   -1.671972   -2.092441
     11          8           0        0.000388    2.358931    0.000000
     12          1           0        0.000261   -2.746545   -0.000000
 ---------------------------------------------------------------------
                    Distance matrix (angstroms):
                    1          2          3          4          5
     1  C    0.000000
     2  C    1.361412   0.000000
     3  C    2.478707   1.473941   0.000000
     4  C    2.786719   2.465086   1.473941   0.000000
     5  C    2.398440   2.786719   2.478707   1.361412   0.000000
     6  N    1.379987   2.386704   2.852113   2.386704   1.379987
     7  H    1.087273   2.159524   3.486852   3.870354   3.349530
     8  H    2.125766   1.086591   2.204118   3.457657   3.873279
     9  H    3.873279   3.457657   2.204118   1.086591   2.125766
    10  H    3.349530   3.870354   3.486852   2.159524   1.087273
    11  O    3.615636   2.391968   1.241668   2.391968   3.615636
    12  H    2.075931   3.294741   3.863808   3.294741   2.075931
                    6          7          8          9         10
     6  N    0.000000
     7  H    2.093385   0.000000
     8  H    3.370513   2.504801   0.000000
     9  H    3.370513   4.956393   4.370926   0.000000
    10  H    2.093385   4.184881   4.956393   2.504801   0.000000
    11  O    4.093781   4.541639   2.666555   2.666555   4.541639
    12  H    1.011694   2.352236   4.192350   4.192350   2.352236
                   11         12
    11  O    0.000000
    12  H    5.105476   0.000000
 Stoichiometry    C5H5NO
 Framework group  CS[SG(CHNO),X(C4H4)]
 Deg. of freedom    17
 Full point group                 CS      NOp   2
 RotChk:  IX=3 Diff= 3.64D-06
 Largest Abelian subgroup         CS      NOp   2
 Largest concise Abelian subgroup CS      NOp   2
                         Standard orientation:                         
 ---------------------------------------------------------------------
 Center     Atomic      Atomic             Coordinates (Angstroms)
 Number     Number       Type             X           Y           Z
 ---------------------------------------------------------------------
      1          6           0        0.000107    1.053755    1.199220
      2          6           0        0.000107   -0.307248    1.232543
      3          6           0        0.000031   -1.115544    0.000000
      4          6           0        0.000107   -0.307248   -1.232543
      5          6           0        0.000107    1.053755   -1.199220
      6          7           0        0.000110    1.736570   -0.000000
      7          1           0        0.000195    1.673691    2.092441
      8          1           0        0.000174   -0.829382    2.185463
      9          1           0        0.000174   -0.829382   -2.185463
     10          1           0        0.000195    1.673691   -2.092441
     11          8           0       -0.000485   -2.357212    0.000000
     12          1           0       -0.000372    2.748264   -0.000000
 ---------------------------------------------------------------------
 Rotational constants (GHZ):      5.6512791      2.6683904      1.8125503
 Leave Link  202 at Fri Aug 27 21:13:37 2021, MaxMem= 17179869184 cpu:         6.2
 (Enter /public3/home/sc51754/softwares/g09e01/l301.exe)
 Basis read from rwf:  (5D, 7F)
 No pseudopotential information found on rwf file.
 There are   183 symmetry adapted cartesian basis functions of A'  symmetry.
 There are   137 symmetry adapted cartesian basis functions of A"  symmetry.
 There are   158 symmetry adapted basis functions of A'  symmetry.
 There are   122 symmetry adapted basis functions of A"  symmetry.
   280 basis functions,   475 primitive gaussians,   320 cartesian basis functions
    25 alpha electrons       25 beta electrons
       nuclear repulsion energy       272.1503939319 Hartrees.
 IExCor=  402 DFT=T Ex=B Corr=LYP ExCW=0 ScaHFX=  0.000000
 ScaDFX=  1.000000  1.000000  1.000000  1.000000 ScalE2=  1.000000  1.000000
 IRadAn=      0 IRanWt=     -1 IRanGd=            0 ICorTp=0 IEmpDi=  4
 NAtoms=   12 NActive=   12 NUniq=    8 SFac= 2.25D+00 NAtFMM=   60 NAOKFM=F Big=F
 Integral buffers will be    131072 words long.
 Raffenetti 2 integral format.
 Two-electron integral symmetry is turned on.
 No density basis found on file   724.
 Leave Link  301 at Fri Aug 27 21:13:37 2021, MaxMem= 17179869184 cpu:         1.8
 (Enter /public3/home/sc51754/softwares/g09e01/l302.exe)
 NPDir=0 NMtPBC=     1 NCelOv=     1 NCel=       1 NClECP=     1 NCelD=      1
         NCelK=      1 NCelE2=     1 NClLst=     1 CellRange=     0.0.
 One-electron integrals computed using PRISM.
 One-electron integral symmetry used in STVInt
 NBasis=   280 RedAO= T EigKep=  1.88D-04  NBF=   158   122
 NBsUse=   280 1.00D-06 EigRej= -1.00D+00 NBFU=   158   122
 Precomputing XC quadrature grid using
 IXCGrd= 4 IRadAn=           0 IRanWt=          -1 IRanGd=           0 AccXCQ= 0.00D+00.
 Generated NRdTot=       0 NPtTot=           0 NUsed=           0 NTot=          32
 NSgBfM=   320   320   320   320   320 MxSgAt=    12 MxSgA2=    12.
 Leave Link  302 at Fri Aug 27 21:13:38 2021, MaxMem= 17179869184 cpu:        45.5
 (Enter /public3/home/sc51754/softwares/g09e01/l303.exe)
 DipDrv:  MaxL=1.
 Leave Link  303 at Fri Aug 27 21:13:39 2021, MaxMem= 17179869184 cpu:        11.4
 (Enter /public3/home/sc51754/softwares/g09e01/l401.exe)
 Initial guess from the checkpoint file:  "4PY_BLYP_PC2_OPT_FREQ.chk"
 B after Tr=     0.000000    0.000000    0.000000
         Rot=    1.000000   -0.000000    0.000000   -0.000015 Ang=  -0.00 deg.
 Guess basis will be translated and rotated to current coordinates.
 JPrj=2 DoOrth=T DoCkMO=T.
 Initial guess orbital symmetries:
       Occupied  (A') (A') (A") (A') (A') (A") (A') (A') (A') (A')
                 (A") (A") (A') (A') (A") (A') (A") (A') (A') (A")
                 (A') (A') (A") (A') (A")
       Virtual   (A') (A') (A') (A') (A') (A') (A') (A') (A') (A')
                 (A') (A') (A') (A') (A') (A') (A') (A') (A') (A')
                 (A') (A') (A') (A') (A') (A') (A') (A') (A') (A')
                 (A') (A') (A') (A') (A') (A') (A') (A') (A') (A')
                 (A') (A') (A') (A') (A') (A') (A') (A') (A') (A')
                 (A') (A') (A') (A') (A') (A') (A') (A') (A') (A')
                 (A') (A') (A') (A') (A') (A') (A') (A') (A') (A')
                 (A') (A') (A') (A') (A') (A') (A') (A') (A') (A')
                 (A') (A') (A') (A') (A') (A') (A') (A') (A') (A')
                 (A') (A') (A') (A') (A') (A') (A') (A') (A') (A')
                 (A') (A') (A') (A') (A') (A') (A') (A') (A') (A')
                 (A') (A') (A') (A') (A') (A') (A') (A') (A') (A')
                 (A') (A') (A') (A') (A') (A') (A') (A') (A') (A')
                 (A') (A') (A') (A') (A') (A') (A') (A') (A') (A')
                 (A') (A') (A") (A") (A") (A") (A") (A") (A") (A")
                 (A") (A") (A") (A") (A") (A") (A") (A") (A") (A")
                 (A") (A") (A") (A") (A") (A") (A") (A") (A") (A")
                 (A") (A") (A") (A") (A") (A") (A") (A") (A") (A")
                 (A") (A") (A") (A") (A") (A") (A") (A") (A") (A")
                 (A") (A") (A") (A") (A") (A") (A") (A") (A") (A")
                 (A") (A") (A") (A") (A") (A") (A") (A") (A") (A")
                 (A") (A") (A") (A") (A") (A") (A") (A") (A") (A")
                 (A") (A") (A") (A") (A") (A") (A") (A") (A") (A")
                 (A") (A") (A") (A") (A") (A") (A") (A") (A") (A")
                 (A") (A") (A") (A") (A") (A") (A") (A") (A") (A")
                 (A") (A") (A") (A") (A")
 The electronic state of the initial guess is 1-A'.
 Generating alternative initial guess.
 ExpMin= 7.41D-02 ExpMax= 1.48D+04 ExpMxC= 5.05D+02 IAcc=2 IRadAn=         4 AccDes= 0.00D+00
 Harris functional with IExCor=  402 and IRadAn=       4 diagonalized for initial guess.
 HarFok:  IExCor=  402 AccDes= 0.00D+00 IRadAn=         4 IDoV= 1 UseB2=F ITyADJ=14
 ICtDFT=  3500011 ScaDFX=  1.000000  1.000000  1.000000  1.000000
 FoFCou: FMM=F IPFlag=           0 FMFlag=      100000 FMFlg1=           0
         NFxFlg=           0 DoJE=T BraDBF=F KetDBF=T FulRan=T
         wScrn=  0.000000 ICntrl=     500 IOpCl=  0 I1Cent=   200000004 NGrid=           0
         NMat0=    1 NMatS0=      1 NMatT0=    0 NMatD0=    1 NMtDS0=    0 NMtDT0=    0
 Petite list used in FoFCou.
 Harris En= -323.682005156203    
 Leave Link  401 at Fri Aug 27 21:13:40 2021, MaxMem= 17179869184 cpu:        95.8
 (Enter /public3/home/sc51754/softwares/g09e01/l502.exe)
 Closed shell SCF:
 Using DIIS extrapolation, IDIIS=  1040.
 Integral symmetry usage will be decided dynamically.
 Keep J ints in memory in symmetry-blocked form, NReq=1161351758.
 IVT=      348938 IEndB=      348938 NGot= 17179869184 MDV= 16792355177
 LenX= 16792355177 LenY= 16792252336
 Requested convergence on RMS density matrix=1.00D-08 within 128 cycles.
 Requested convergence on MAX density matrix=1.00D-06.
 Requested convergence on             energy=1.00D-06.
 No special actions if energy rises.
 FoFCou: FMM=F IPFlag=           0 FMFlag=           0 FMFlg1=           0
         NFxFlg=           0 DoJE=F BraDBF=F KetDBF=F FulRan=T
         wScrn=  0.000000 ICntrl=     600 IOpCl=  0 I1Cent=           0 NGrid=           0
         NMat0=    1 NMatS0=  39340 NMatT0=    0 NMatD0=    1 NMtDS0=    0 NMtDT0=    0
 Petite list used in FoFCou.
 Integral accuracy reduced to 1.0D-05 until final iterations.

 Cycle   1  Pass 0  IDiag  1:
 E= -323.545927694230    
 DIIS: error= 4.74D-04 at cycle   1 NSaved=   1.
 NSaved= 1 IEnMin= 1 EnMin= -323.545927694230     IErMin= 1 ErrMin= 4.74D-04
 ErrMax= 4.74D-04  0.00D+00 EMaxC= 1.00D-01 BMatC= 8.52D-05 BMatP= 8.52D-05
 IDIUse=3 WtCom= 9.95D-01 WtEn= 4.74D-03
 Coeff-Com:  0.100D+01
 Coeff-En:   0.100D+01
 Coeff:      0.100D+01
 Gap=     0.508 Goal=   None    Shift=    0.000
 RMSDP=3.65D-05 MaxDP=1.14D-03              OVMax= 2.18D-03

 Cycle   2  Pass 0  IDiag  1:
 E= -323.545982195395     Delta-E=       -0.000054501164 Rises=F Damp=F
 DIIS: error= 3.37D-04 at cycle   2 NSaved=   2.
 NSaved= 2 IEnMin= 2 EnMin= -323.545982195395     IErMin= 2 ErrMin= 3.37D-04
 ErrMax= 3.37D-04  0.00D+00 EMaxC= 1.00D-01 BMatC= 2.18D-05 BMatP= 8.52D-05
 IDIUse=3 WtCom= 9.97D-01 WtEn= 3.37D-03
 Coeff-Com:  0.288D+00 0.712D+00
 Coeff-En:   0.000D+00 0.100D+01
 Coeff:      0.287D+00 0.713D+00
 Gap=     0.126 Goal=   None    Shift=    0.000
 RMSDP=2.43D-05 MaxDP=1.26D-03 DE=-5.45D-05 OVMax= 3.51D-03

 Cycle   3  Pass 0  IDiag  1:
 E= -323.545977705434     Delta-E=        0.000004489961 Rises=F Damp=F
 DIIS: error= 3.20D-04 at cycle   3 NSaved=   3.
 NSaved= 3 IEnMin= 2 EnMin= -323.545982195395     IErMin= 3 ErrMin= 3.20D-04
 ErrMax= 3.20D-04  0.00D+00 EMaxC= 1.00D-01 BMatC= 2.51D-05 BMatP= 2.18D-05
 IDIUse=3 WtCom= 3.59D-01 WtEn= 6.41D-01
 Coeff-Com:  0.888D-01 0.508D+00 0.403D+00
 Coeff-En:   0.000D+00 0.542D+00 0.458D+00
 Coeff:      0.318D-01 0.530D+00 0.439D+00
 Gap=     0.127 Goal=   None    Shift=    0.000
 RMSDP=1.96D-05 MaxDP=9.47D-04 DE= 4.49D-06 OVMax= 3.99D-03

 Cycle   4  Pass 0  IDiag  1:
 E= -323.545992414831     Delta-E=       -0.000014709397 Rises=F Damp=F
 DIIS: error= 2.47D-04 at cycle   4 NSaved=   4.
 NSaved= 4 IEnMin= 4 EnMin= -323.545992414831     IErMin= 4 ErrMin= 2.47D-04
 ErrMax= 2.47D-04  0.00D+00 EMaxC= 1.00D-01 BMatC= 1.02D-05 BMatP= 2.18D-05
 IDIUse=3 WtCom= 9.98D-01 WtEn= 2.47D-03
 EnCoef did     6 forward-backward iterations
 Coeff-Com:  0.240D-01 0.331D+00 0.348D+00 0.297D+00
 Coeff-En:   0.000D+00 0.166D+00 0.310D+00 0.523D+00
 Coeff:      0.240D-01 0.331D+00 0.347D+00 0.298D+00
 Gap=     0.126 Goal=   None    Shift=    0.000
 RMSDP=1.32D-05 MaxDP=5.42D-04 DE=-1.47D-05 OVMax= 2.07D-03

 Cycle   5  Pass 0  IDiag  1:
 E= -323.546001871861     Delta-E=       -0.000009457031 Rises=F Damp=F
 DIIS: error= 4.99D-05 at cycle   5 NSaved=   5.
 NSaved= 5 IEnMin= 5 EnMin= -323.546001871861     IErMin= 5 ErrMin= 4.99D-05
 ErrMax= 4.99D-05  0.00D+00 EMaxC= 1.00D-01 BMatC= 3.47D-07 BMatP= 1.02D-05
 IDIUse=1 WtCom= 1.00D+00 WtEn= 0.00D+00
 Coeff-Com:  0.546D-02 0.145D+00 0.171D+00 0.202D+00 0.476D+00
 Coeff:      0.546D-02 0.145D+00 0.171D+00 0.202D+00 0.476D+00
 Gap=     0.126 Goal=   None    Shift=    0.000
 RMSDP=2.37D-06 MaxDP=1.07D-04 DE=-9.46D-06 OVMax= 3.17D-04

 Initial convergence to 1.0D-05 achieved.  Increase integral accuracy.
 Cycle   6  Pass 1  IDiag  1:
 E= -323.546067590064     Delta-E=       -0.000065718203 Rises=F Damp=F
 DIIS: error= 5.05D-05 at cycle   1 NSaved=   1.
 NSaved= 1 IEnMin= 1 EnMin= -323.546067590064     IErMin= 1 ErrMin= 5.05D-05
 ErrMax= 5.05D-05  0.00D+00 EMaxC= 1.00D-01 BMatC= 3.49D-07 BMatP= 3.49D-07
 IDIUse=1 WtCom= 1.00D+00 WtEn= 0.00D+00
 Coeff-Com:  0.100D+01
 Coeff:      0.100D+01
 Gap=     0.126 Goal=   None    Shift=    0.000
 RMSDP=2.37D-06 MaxDP=1.07D-04 DE=-6.57D-05 OVMax= 4.60D-04

 Cycle   7  Pass 1  IDiag  1:
 E= -323.546067753427     Delta-E=       -0.000000163363 Rises=F Damp=F
 DIIS: error= 4.26D-05 at cycle   2 NSaved=   2.
 NSaved= 2 IEnMin= 2 EnMin= -323.546067753427     IErMin= 2 ErrMin= 4.26D-05
 ErrMax= 4.26D-05  0.00D+00 EMaxC= 1.00D-01 BMatC= 3.71D-07 BMatP= 3.49D-07
 IDIUse=1 WtCom= 1.00D+00 WtEn= 0.00D+00
 Coeff-Com:  0.512D+00 0.488D+00
[...]
 Iteration  2 RMS(Cart)=  0.00000000 RMS(Int)=  0.00000000
 ITry= 1 IFail=0 DXMaxC= 2.01D-04 DCOld= 1.00D+10 DXMaxT= 3.00D-01 DXLimC= 3.00D+00 Rises=F
 ClnCor:  largest displacement from symmetrization is 4.04D-10 for atom     9.
 Variable       Old X    -DE/DX   Delta X   Delta X   Delta X     New X
                                 (Linear)    (Quad)   (Total)
    R1        2.57245   0.00001   0.00000   0.00002   0.00002   2.57247
    R2        2.60869  -0.00002   0.00000  -0.00006  -0.00006   2.60864
    R3        2.05413   0.00001   0.00000   0.00002   0.00002   2.05415
    R4        2.78177   0.00001   0.00000   0.00005   0.00005   2.78182
    R5        2.05330  -0.00000   0.00000  -0.00001  -0.00001   2.05329
    R6        2.78177   0.00001   0.00000   0.00005   0.00005   2.78182
    R7        2.35012  -0.00002   0.00000  -0.00004  -0.00004   2.35009
    R8        2.57245   0.00001   0.00000   0.00002   0.00002   2.57247
    R9        2.05330  -0.00000   0.00000  -0.00001  -0.00001   2.05329
   R10        2.60869  -0.00002   0.00000  -0.00006  -0.00006   2.60864
   R11        2.05413   0.00001   0.00000   0.00002   0.00002   2.05415
   R12        1.91200  -0.00001   0.00000  -0.00001  -0.00001   1.91199
    A1        2.11193   0.00000   0.00000   0.00000   0.00000   2.11193
    A2        2.15480  -0.00001   0.00000  -0.00008  -0.00008   2.15473
    A3        2.01645   0.00001   0.00000   0.00007   0.00007   2.01652
    A4        2.12612  -0.00000   0.00000  -0.00002  -0.00002   2.12610
    A5        2.09594   0.00001   0.00000   0.00005   0.00005   2.09599
    A6        2.06112  -0.00000   0.00000  -0.00003  -0.00003   2.06109
    A7        1.98347  -0.00000   0.00000  -0.00001  -0.00001   1.98346
    A8        2.14986   0.00000   0.00000   0.00000   0.00000   2.14986
    A9        2.14986   0.00000   0.00000   0.00000   0.00000   2.14986
   A10        2.12612  -0.00000   0.00000  -0.00002  -0.00002   2.12610
   A11        2.06112  -0.00000   0.00000  -0.00003  -0.00003   2.06109
   A12        2.09594   0.00001   0.00000   0.00005   0.00005   2.09599
   A13        2.11193   0.00000   0.00000   0.00000   0.00000   2.11193
   A14        2.15480  -0.00001   0.00000  -0.00008  -0.00008   2.15473
   A15        2.01645   0.00001   0.00000   0.00007   0.00007   2.01652
   A16        2.10679   0.00001   0.00000   0.00004   0.00004   2.10683
   A17        2.08820  -0.00001   0.00000  -0.00002  -0.00002   2.08818
   A18        2.08820  -0.00001   0.00000  -0.00002  -0.00002   2.08818
    D1       -0.00008   0.00000   0.00000   0.00009   0.00009   0.00000
    D2        3.14154   0.00000   0.00000   0.00005   0.00005   3.14159
    D3        3.14155   0.00000   0.00000   0.00005   0.00005  -3.14159
    D4       -0.00001   0.00000   0.00000   0.00001   0.00001  -0.00000
    D5        0.00004   0.00000   0.00000  -0.00004  -0.00004  -0.00000
    D6        3.14140   0.00000   0.00000   0.00019   0.00019  -3.14159
    D7       -3.14159   0.00000   0.00000  -0.00001  -0.00001   3.14159
    D8       -0.00023   0.00000   0.00000   0.00023   0.00023   0.00000
    D9        0.00012  -0.00001   0.00000  -0.00012  -0.00012  -0.00000
   D10        3.14146   0.00001   0.00000   0.00013   0.00013   3.14159
   D11       -3.14151  -0.00000   0.00000  -0.00008  -0.00008  -3.14159
   D12       -0.00016   0.00001   0.00000   0.00016   0.00016  -0.00000
   D13       -0.00012   0.00001   0.00000   0.00012   0.00012   0.00000
   D14        3.14151   0.00000   0.00000   0.00008   0.00008   3.14159
   D15       -3.14146  -0.00001   0.00000  -0.00013  -0.00013  -3.14159
   D16        0.00016  -0.00001   0.00000  -0.00016  -0.00016   0.00000
   D17        0.00008  -0.00000   0.00000  -0.00009  -0.00009  -0.00000
   D18       -3.14155  -0.00000   0.00000  -0.00005  -0.00005   3.14159
   D19       -3.14154  -0.00000   0.00000  -0.00005  -0.00005  -3.14159
   D20        0.00001  -0.00000   0.00000  -0.00001  -0.00001   0.00000
   D21       -0.00004  -0.00000   0.00000   0.00004   0.00004   0.00000
   D22       -3.14140  -0.00000   0.00000  -0.00019  -0.00019   3.14159
   D23        3.14159  -0.00000   0.00000   0.00001   0.00001  -3.14159
   D24        0.00023  -0.00000   0.00000  -0.00023  -0.00023  -0.00000
         Item               Value     Threshold  Converged?
 Maximum Force            0.000021     0.000450     YES
 RMS     Force            0.000007     0.000300     YES
 Maximum Displacement     0.000201     0.001800     YES
 RMS     Displacement     0.000047     0.001200     YES
 Predicted change in Energy=-7.750381D-09
 Optimization completed.
    -- Stationary point found.
                           ----------------------------
                           !   Optimized Parameters   !
                           ! (Angstroms and Degrees)  !
 --------------------------                            --------------------------
 ! Name  Definition              Value          Derivative Info.                !
 --------------------------------------------------------------------------------
 ! R1    R(1,2)                  1.3613         -DE/DX =    0.0                 !
 ! R2    R(1,6)                  1.3805         -DE/DX =    0.0                 !
 ! R3    R(1,7)                  1.087          -DE/DX =    0.0                 !
 ! R4    R(2,3)                  1.4721         -DE/DX =    0.0                 !
 ! R5    R(2,8)                  1.0866         -DE/DX =    0.0                 !
 ! R6    R(3,4)                  1.4721         -DE/DX =    0.0                 !
 ! R7    R(3,11)                 1.2436         -DE/DX =    0.0                 !
 ! R8    R(4,5)                  1.3613         -DE/DX =    0.0                 !
 ! R9    R(4,9)                  1.0866         -DE/DX =    0.0                 !
 ! R10   R(5,6)                  1.3805         -DE/DX =    0.0                 !
 ! R11   R(5,10)                 1.087          -DE/DX =    0.0                 !
 ! R12   R(6,12)                 1.0118         -DE/DX =    0.0                 !
 ! A1    A(2,1,6)              121.0047         -DE/DX =    0.0                 !
 ! A2    A(2,1,7)              123.4611         -DE/DX =    0.0                 !
 ! A3    A(6,1,7)              115.5342         -DE/DX =    0.0                 !
 ! A4    A(1,2,3)              121.8179         -DE/DX =    0.0                 !
 ! A5    A(1,2,8)              120.0885         -DE/DX =    0.0                 !
 ! A6    A(3,2,8)              118.0936         -DE/DX =    0.0                 !
 ! A7    A(2,3,4)              113.6446         -DE/DX =    0.0                 !
 ! A8    A(2,3,11)             123.1777         -DE/DX =    0.0                 !
 ! A9    A(4,3,11)             123.1777         -DE/DX =    0.0                 !
 ! A10   A(3,4,5)              121.8179         -DE/DX =    0.0                 !
 ! A11   A(3,4,9)              118.0936         -DE/DX =    0.0                 !
 ! A12   A(5,4,9)              120.0885         -DE/DX =    0.0                 !
 ! A13   A(4,5,6)              121.0047         -DE/DX =    0.0                 !
 ! A14   A(4,5,10)             123.4611         -DE/DX =    0.0                 !
 ! A15   A(6,5,10)             115.5342         -DE/DX =    0.0                 !
 ! A16   A(1,6,5)              120.7102         -DE/DX =    0.0                 !
 ! A17   A(1,6,12)             119.6449         -DE/DX =    0.0                 !
 ! A18   A(5,6,12)             119.6449         -DE/DX =    0.0                 !
 ! D1    D(6,1,2,3)             -0.0048         -DE/DX =    0.0                 !
 ! D2    D(6,1,2,8)            179.9971         -DE/DX =    0.0                 !
 ! D3    D(7,1,2,3)           -180.0026         -DE/DX =    0.0                 !
 ! D4    D(7,1,2,8)             -0.0007         -DE/DX =    0.0                 !
 ! D5    D(2,1,6,5)              0.0025         -DE/DX =    0.0                 !
 ! D6    D(2,1,6,12)          -180.0111         -DE/DX =    0.0                 !
 ! D7    D(7,1,6,5)            180.0004         -DE/DX =    0.0                 !
 ! D8    D(7,1,6,12)            -0.0131         -DE/DX =    0.0                 !
 ! D9    D(1,2,3,4)              0.0066         -DE/DX =    0.0                 !
 ! D10   D(1,2,3,11)           179.9925         -DE/DX =    0.0                 !
 ! D11   D(8,2,3,4)           -179.9953         -DE/DX =    0.0                 !
 ! D12   D(8,2,3,11)            -0.0094         -DE/DX =    0.0                 !
 ! D13   D(2,3,4,5)             -0.0066         -DE/DX =    0.0                 !
 ! D14   D(2,3,4,9)            179.9953         -DE/DX =    0.0                 !
 ! D15   D(11,3,4,5)          -179.9925         -DE/DX =    0.0                 !
 ! D16   D(11,3,4,9)             0.0094         -DE/DX =    0.0                 !
 ! D17   D(3,4,5,6)              0.0048         -DE/DX =    0.0                 !
 ! D18   D(3,4,5,10)           180.0026         -DE/DX =    0.0                 !
 ! D19   D(9,4,5,6)           -179.9971         -DE/DX =    0.0                 !
 ! D20   D(9,4,5,10)             0.0007         -DE/DX =    0.0                 !
 ! D21   D(4,5,6,1)             -0.0025         -DE/DX =    0.0                 !
 ! D22   D(4,5,6,12)           180.0111         -DE/DX =    0.0                 !
 ! D23   D(10,5,6,1)          -180.0004         -DE/DX =    0.0                 !
 ! D24   D(10,5,6,12)            0.0131         -DE/DX =    0.0                 !
 --------------------------------------------------------------------------------
 GradGradGradGradGradGradGradGradGradGradGradGradGradGradGradGradGradGrad

 Leave Link  103 at Fri Aug 27 21:14:57 2021, MaxMem= 17179869184 cpu:        36.0
 (Enter /public3/home/sc51754/softwares/g09e01/l9999.exe)
 1\1\GINC-T1507\Freq\RBLYP\Gen\C5H5N1O1\SC51754\27-Aug-2021\0\\#P Geom=
 AllCheck Guess=TCheck SCRF=Check GenChk RBLYP/ChkBas Freq\\4PY_BLYP_PC
 2_OPT_FREQ\\0,1\C,-0.000176875,-1.0515827052,1.1997696631\C,-0.0001187
 122,0.3093180456,1.2320733818\C,-0.0000050069,1.1148788086,0.\C,-0.000
 1187122,0.3093180456,-1.2320733818\C,-0.000176875,-1.0515827052,-1.199
 7696631\N,-0.0002311885,-1.7343909792,0.\H,-0.000219098,-1.6722737122,
 2.0921314424\H,-0.0001243255,0.8315874176,2.184882117\H,-0.0001243255,
 0.8315874176,-2.184882117\H,-0.000219098,-1.6722737122,-2.0921314424\O
 ,-0.0000859149,2.3585113341,0.\H,-0.0001038683,-2.7461772552,0.\\Versi
 on=EM64L-G09RevE.01\State=1-A'\HF=-323.5460761\RMSD=8.055e-09\RMSF=1.4
 74e-05\ZeroPoint=0.0902705\Thermal=0.0958534\Dipole=0.0000165,-2.71527
 12,0.\DipoleDeriv=-0.0745534,0.0000954,-0.0000062,0.0000687,0.6238873,
 0.2163196,0.0000177,0.3517299,0.3692486,-0.1688299,-0.0000175,0.000009
 7,-0.0000263,-0.4738319,0.0642252,0.0000159,0.4474498,-0.108155,0.1976
 54,0.0000551,0.,0.0000823,1.6720592,0.,0.,0.,0.4812161,-0.1688299,-0.0
 000175,-0.0000097,-0.0000263,-0.4738319,-0.0642252,-0.0000159,-0.44744
 98,-0.108155,-0.0745534,0.0000954,0.0000062,0.0000687,0.6238873,-0.216
 3197,-0.0000177,-0.3517299,0.3692486,-0.165417,-0.0002716,0.,-0.000085
 8,-0.7972954,0.,0.,0.,-0.5987666,0.1452708,-0.0000322,0.000003,-0.0000
 032,-0.0005896,0.077825,0.0000081,0.0667227,-0.017377,0.1369613,-0.000
 0119,0.0000091,-0.0000044,0.0456113,-0.0452441,0.0000012,-0.0284067,-0
 .0321846,0.1369613,-0.0000119,-0.0000091,-0.0000044,0.0456113,0.045244
 1,-0.0000012,0.0284067,-0.0321846,0.1452708,-0.0000322,-0.000003,-0.00
 00032,-0.0005896,-0.077825,-0.0000081,-0.0667227,-0.017377,-0.3997319,
 0.0000298,0.,-0.0000761,-1.5090164,0.,0.,0.,-0.4323835,0.2897974,0.000
 119,0.,0.00001,0.2440985,0.,0.,0.,0.1268701\Polar=39.2632852,0.0020307
 ,95.1840511,0.,0.,74.6157847\PG=CS [SG(C1H1N1O1),X(C4H4)]\NImag=0\\0.1
 1920316,0.00002851,0.75409954,-0.00000572,-0.06005371,0.63779458,-0.04
 861184,-0.00001655,0.00000338,0.10013617,-0.00001735,-0.40937174,0.012
 77467,0.00002693,0.71897836,0.00000082,-0.01394430,-0.12252015,-0.0000
 1173,0.08405344,0.59602143,-0.00042403,0.00000073,-0.00000049,-0.06773
 521,-0.00000687,0.00000861,0.17910761,-0.00000346,-0.02876013,0.026222
 40,-0.00000577,-0.10127089,0.02796993,-0.00001092,0.78119771,0.0000009
 2,0.03754195,0.03610424,0.00001041,0.01507673,-0.18591095,0.,0.,0.4753
 5751,-0.00055061,-0.00000096,-0.00000072,0.00663300,0.00000065,0.00000
 155,-0.06773521,-0.00000577,-0.00001041,0.10013617,0.00000059,-0.01078
 425,-0.01840027,0.00000065,0.02785262,0.00637209,-0.00000687,-0.101270
 89,-0.01507673,0.00002693,0.71897836,0.00000072,0.00265663,-0.00302829
 ,-0.00000155,-0.00637209,-0.03072656,-0.00000861,-0.02796992,-0.185910
 95,0.00001173,-0.08405344,0.59602143,0.00497828,-0.00000020,-0.0000014
 2,-0.00055061,0.00000059,-0.00000072,-0.00042403,-0.00000346,-0.000000
 92,-0.04861184,-0.00001735,-0.00000082,0.11920316,-0.00000020,0.020823
 43,0.00703295,-0.00000096,-0.01078425,-0.00265663,0.00000073,-0.028760
 13,-0.03754195,-0.00001655,-0.40937174,0.01394430,0.00002851,0.7540995
 4,0.00000142,-0.00703295,-0.06615186,0.00000072,0.01840027,-0.00302829
 ,0.00000049,-0.02622240,0.03610424,-0.00000338,-0.01277467,-0.12252015
 ,0.00000572,0.06005371,0.63779458,-0.04144223,0.00000286,-0.00000255,0
 .00885348,-0.00000350,0.00000027,-0.00868344,0.00000103,0.,0.00885348,
 -0.00000350,-0.00000027,-0.04144223,0.00000286,0.00000255,0.05894521,-
 0.00000381,-0.16355157,-0.07979464,-0.00000276,-0.03872395,-0.03899541
 ,-0.00000057,0.00739456,0.,-0.00000276,-0.03872395,0.03899541,-0.00000
 381,-0.16355157,0.07979464,-0.00004576,0.82201575,-0.00001053,-0.05166
 257,-0.24409530,-0.00000193,-0.04718000,0.00423752,0.,0.,-0.04526308,0
 .00000193,0.04718000,0.00423752,0.00001053,0.05166257,-0.24409530,0.,0
 .,0.62682885,-0.03281509,-0.00000618,0.00001074,0.00632378,-0.00000152
 ,0.00000164,0.01033222,-0.00000036,-0.00000100,-0.00093104,0.00000041,
 -0.00000002,0.00327162,-0.00000028,0.00000075,0.00024431,0.00000032,-0
 .00000307,0.02194933,-0.00000642,-0.14677376,0.13103780,-0.00000263,-0
 .01191831,0.02652421,-0.00000007,-0.00204875,-0.00554129,0.,0.00061762
 ,0.00024931,-0.00000031,-0.00232821,-0.00174676,0.00000028,0.01213772,
 -0.01943100,0.00000846,0.14996676,0.00000862,0.12241701,-0.23192171,-0
 .00000031,-0.00087868,0.00557959,-0.00000003,-0.00160138,0.00081444,0.
 00000004,0.00034684,0.00085696,-0.00000013,-0.00584368,-0.00098924,0.0
 0000104,0.01648086,-0.02658392,-0.00000917,-0.13236841,0.25213650,-0.0
 0110290,-0.00000135,-0.00000114,-0.02976732,-0.00000023,0.00000118,0.0
 0433333,0.00000147,0.00000250,0.00343773,-0.00000052,0.00000042,-0.000
 14316,-0.00000024,-0.00000020,0.00834627,-0.00000033,0.00000072,-0.004
 97099,0.00000019,0.00000001,0.02228936,0.00000009,-0.01022150,-0.02757
 494,-0.00000112,-0.11426789,-0.11306526,-0.00000022,0.01127355,0.01410
 738,-0.00000028,-0.00183820,0.00276299,-0.00000002,-0.00053002,0.00078
 192,-0.00000010,-0.00515849,0.00139498,0.00000031,0.00079138,0.0001339
 0,0.00000135,0.11881090,-0.00000011,0.00229429,0.00262993,0.00000268,-
 0.11587769,-0.26510123,-0.00000017,-0.01718281,-0.01774353,0.00000058,
 0.00366630,-0.00354976,0.00000004,0.00147466,-0.00056779,0.00000067,0.
 00142578,0.00321893,-0.00000035,-0.00054770,0.00074895,-0.00000282,0.1
 2428066,0.27727729,-0.00014316,-0.00000024,0.00000020,0.00343773,-0.00
 000052,-0.00000042,0.00433333,0.00000147,-0.00000250,-0.02976732,-0.00
 000023,-0.00000118,-0.00110290,-0.00000135,0.00000114,0.00834627,-0.00
 000033,-0.00000072,-0.00068754,0.00000008,-0.00000002,-0.00101420,0.00
 000018,-0.00000014,0.02228936,-0.00000002,-0.00053002,-0.00078192,-0.0
 0000028,-0.00183820,-0.00276299,-0.00000022,0.01127355,-0.01410738,-0.
 00000112,-0.11426789,0.11306526,0.00000009,-0.01022150,0.02757494,-0.0
 0000010,-0.00515849,-0.00139498,0.00000005,0.00008988,0.00010549,0.000
 00018,0.00052805,-0.00081890,0.00000135,0.11881090,-0.00000004,-0.0014
 7466,-0.00056779,-0.00000058,-0.00366630,-0.00354976,0.00000017,0.0171
 8281,-0.01774353,-0.00000268,0.11587769,-0.26510123,0.00000011,-0.0022
 9429,0.00262993,-0.00000067,-0.00142578,0.00321893,0.00000008,0.000110
 23,0.00002497,0.00000014,0.00081890,-0.00105353,0.00000282,-0.12428066
 ,0.27727729,0.00327162,-0.00000028,-0.00000075,-0.00093104,0.00000041,
 0.00000002,0.01033222,-0.00000036,0.00000100,0.00632378,-0.00000152,-0
 .00000164,-0.03281509,-0.00000618,-0.00001074,0.00024431,0.00000032,0.
 00000307,0.00108683,-0.00000005,0.00000001,-0.00068754,0.00000005,-0.0
 0000008,-0.00497099,0.00000031,0.00000035,0.02194933,-0.00000031,-0.00
 232821,0.00174676,0.,0.00061762,-0.00024931,-0.00000007,-0.00204875,0.
 00554129,-0.00000263,-0.01191831,-0.02652421,-0.00000642,-0.14677376,-
 0.13103780,0.00000028,0.01213772,0.01943100,-0.00000005,0.00052251,0.0
 0068291,0.00000008,0.00008988,-0.00011023,0.00000019,0.00079138,0.0005
 4770,0.00000846,0.14996676,0.00000013,0.00584368,-0.00098924,-0.000000
 04,-0.00034684,0.00085696,0.00000003,0.00160138,0.00081444,0.00000031,
 0.00087868,0.00557959,-0.00000862,-0.12241701,-0.23192171,-0.00000104,
 -0.01648086,-0.02658392,-0.00000001,-0.00068291,-0.00109019,0.00000002
 ,-0.00010549,0.00002497,-0.00000001,-0.00013390,0.00074895,0.00000917,
 0.13236841,0.25213650,0.00377947,-0.00000054,0.00000062,0.01926937,0.0
 0000014,0.00000007,-0.06278674,0.00002642,0.,0.01926936,0.00000014,-0.
 00000007,0.00377947,-0.00000054,-0.00000062,0.00004404,0.00000022,0.,-
 0.00216759,0.00000016,-0.00000003,-0.00249242,0.00000019,-0.00000034,-
 0.00249242,0.00000019,0.00000034,-0.00216759,0.00000016,0.00000003,0.0
 2630909,0.00000100,0.00933985,0.00642898,0.00000184,-0.06175078,0.0301
 4924,0.00002385,-0.54657688,0.,0.00000184,-0.06175078,-0.03014924,0.00
 000100,0.00933985,-0.00642898,-0.00000160,-0.00737876,0.,-0.00000074,-
 0.00224951,0.00034243,-0.00000038,0.00096807,0.00097760,-0.00000038,0.
 00096808,-0.00097759,-0.00000074,-0.00224951,-0.00034243,-0.00002643,0
 .66023051,0.00000011,-0.00403950,-0.01279117,-0.00000104,0.04513007,0.
 00998449,0.,0.,-0.09501606,0.00000104,-0.04513007,0.00998448,-0.000000
 11,0.00403950,-0.01279116,0.,0.,0.01180258,0.00000045,0.00197050,0.000
 09956,-0.00000031,-0.00221784,0.00385087,0.00000031,0.00221784,0.00385
 087,-0.00000045,-0.00197050,0.00009956,0.,0.,0.08024421,-0.00614268,-0
 .00000580,-0.00000216,0.00294250,0.00000126,-0.00000130,-0.00065004,-0
 .00000031,0.,0.00294250,0.00000126,0.00000130,-0.00614268,-0.00000580,
 0.00000216,-0.00230946,0.00005927,0.,-0.00163582,0.00000031,-0.0000000
 2,0.00177185,-0.00000043,0.00000005,0.00177185,-0.00000043,-0.00000005
 ,-0.00163582,0.00000031,0.00000002,-0.00034402,0.00000074,0.,0.0094318
 2,0.00000138,-0.01194165,0.00136192,0.00000065,0.00247740,-0.00339501,
 0.00000050,-0.00040295,0.,0.00000065,0.00247740,0.00339501,0.00000138,
 -0.01194165,-0.00136192,0.00004724,-0.43143898,0.,-0.00000041,0.001192
 66,0.00018271,-0.00000025,-0.00044574,0.00041805,-0.00000025,-0.000445
 74,-0.00041805,-0.00000041,0.00119266,-0.00018271,-0.00000012,0.001109
 85,0.,-0.00005037,0.44816672,0.00000365,-0.03254588,0.00553676,-0.0000
 0002,-0.00111356,-0.00584306,0.,0.,-0.00160677,0.00000002,0.00111356,-
 0.00584306,-0.00000365,0.03254588,0.00553676,0.,0.,-0.06692281,-0.0000
 0003,0.00042603,0.00032409,-0.00000051,-0.00131720,0.00026491,0.000000
 51,0.00131720,0.00026491,0.00000003,-0.00042603,0.00032409,0.,0.,0.000
 68177,0.,0.,0.06728242\\0.00000076,0.00002530,0.00002934,-0.00001054,0
 .00000288,-0.00001921,0.00003249,-0.00003240,0.,-0.00001054,0.00000288
 ,0.00001921,0.00000076,0.00002530,-0.00002934,-0.00000565,-0.00002881,
 0.,0.00000094,-0.00000288,-0.00001056,0.00000005,-0.00000232,0.0000030
 6,0.00000005,-0.00000232,-0.00000306,0.00000094,-0.00000288,0.00001056
 ,-0.00001182,0.00002057,0.,0.00000257,-0.00000533,0.\\\@


 You can't act like a skunk without someone's getting wind of it.
 -- Lorene Workman
 Job cpu time:       0 days  0 hours 32 minutes 18.6 seconds.
 File lengths (MBytes):  RWF=     65 Int=      0 D2E=      0 Chk=      7 Scr=      1
 Normal termination of Gaussian 09 at Fri Aug 27 21:14:57 2021.
