 Entering Gaussian System, Link 0=g09
 AtFile(1): pc-2.gbs
            -H     0
            S    4   1.00
                  0.754230D+02           0.240650D-02
                  0.113500D+02           0.184870D-01
                  0.259930D+01           0.897420D-01
                  0.735130D+00           0.281110D+00
            S    1   1.00
                  0.231670D+00           0.100000D+01
            S    1   1.00
                  0.741470D-01           0.100000D+01
            P    1   1.00
                  0.160000D+01           0.100000D+01
            P    1   1.00
                  0.450000D+00           0.100000D+01
            D    1   1.00
                  0.125000D+01           0.100000D+01
            ****
            -C     0
            S    7   1.00
                  0.785710D+04           0.568250D-03
                  0.117870D+04           0.439150D-02
                  0.268320D+03           0.225040D-01
                  0.759480D+02           0.866530D-01
                  0.245590D+02           0.244050D+00
                  0.862120D+01           0.441480D+00
                  0.312780D+01           0.353320D+00
            S    7   1.00
                  0.117870D+04          -0.594920D-06
                  0.268320D+03          -0.627480D-04
                  0.759480D+02          -0.757730D-03
                  0.245590D+02          -0.733080D-02
                  0.862120D+01          -0.389320D-01
                  0.312780D+01          -0.889080D-01
                  0.822020D+00           0.216890D+00
            S    1   1.00
                  0.330170D+00           0.100000D+01
            S    1   1.00
                  0.114630D+00           0.100000D+01
            P    4   1.00
                  0.337750D+02           0.602940D-02
                  0.767660D+01           0.432280D-01
                  0.223570D+01           0.163010D+00
                  0.764470D+00           0.365040D+00
            P    1   1.00
                  0.262320D+00           0.100000D+01
            P    1   1.00
                  0.846380D-01           0.100000D+01
            D    1   1.00
                  0.140000D+01           0.100000D+01
            D    1   1.00
                  0.450000D+00           0.100000D+01
            F    1   1.00
                  0.950000D+00           0.100000D+01
            ****
            -N     0
            S    7   1.00
                  0.111010D+05           0.545700D-03
                  0.166530D+04           0.421810D-02
                  0.379080D+03           0.216450D-01
                  0.107300D+03           0.837760D-01
                  0.347470D+02           0.238810D+00
                  0.122490D+02           0.439940D+00
                  0.447430D+01           0.363640D+00
            S    7   1.00
                  0.166530D+04          -0.150060D-05
                  0.379080D+03          -0.587530D-04
                  0.107300D+03          -0.774530D-03
                  0.347470D+02          -0.721610D-02
                  0.122490D+02          -0.393380D-01
                  0.447430D+01          -0.906110D-01
                  0.124040D+01           0.198820D+00
            S    1   1.00
                  0.487430D+00           0.100000D+01
            S    1   1.00
                  0.164840D+00           0.100000D+01
            P    4   1.00
                  0.479340D+02           0.617060D-02
                  0.109990D+02           0.442600D-01
                  0.324720D+01           0.168250D+00
                  0.111140D+01           0.368480D+00
            P    1   1.00
                  0.379880D+00           0.100000D+01
            P    1   1.00
                  0.120680D+00           0.100000D+01
            D    1   1.00
                  0.180000D+01           0.100000D+01
            D    1   1.00
                  0.550000D+00           0.100000D+01
            F    1   1.00
                  0.102000D+01           0.100000D+01
            ****
            -O     0
            S    7   1.00
                  0.147820D+05           0.535190D-03
                  0.221730D+04           0.413750D-02
                  0.504740D+03           0.212450D-01
                  0.142870D+03           0.824530D-01
                  0.463000D+02           0.236710D+00
                  0.163370D+02           0.440390D+00
                  0.598280D+01           0.364650D+00
            S    7   1.00
                  0.221730D+04          -0.192750D-05
                  0.504740D+03          -0.579640D-04
                  0.142870D+03          -0.794940D-03
                  0.463000D+02          -0.731250D-02
                  0.163370D+02          -0.405740D-01
                  0.598280D+01          -0.915940D-01
                  0.167180D+01           0.209400D+00
            S    1   1.00
                  0.646620D+00           0.100000D+01
            S    1   1.00
                  0.216690D+00           0.100000D+01
            P    4   1.00
                  0.604240D+02           0.689490D-02
                  0.139350D+02           0.490050D-01
                  0.415310D+01           0.182550D+00
                  0.141580D+01           0.376330D+00
            P    1   1.00
                  0.475490D+00           0.100000D+01
            P    1   1.00
                  0.145290D+00           0.100000D+01
            D    1   1.00
                  0.220000D+01           0.100000D+01
            D    1   1.00
                  0.650000D+00           0.100000D+01
            F    1   1.00
                  0.110000D+01           0.100000D+01
            ****
 Initial command:
 /public3/home/sc51754/softwares/g09e01/l1.exe "./Gau-19075.inp" -scrdir="./"
 Entering Link 1 = /public3/home/sc51754/softwares/g09e01/l1.exe PID=     19076.
  
 Copyright (c) 1988,1990,1992,1993,1995,1998,2003,2009,2015,
            Gaussian, Inc.  All Rights Reserved.
  
 This is part of the Gaussian(R) 09 program.  It is based on
 the Gaussian(R) 03 system (copyright 2003, Gaussian, Inc.),
 the Gaussian(R) 98 system (copyright 1998, Gaussian, Inc.),
 the Gaussian(R) 94 system (copyright 1995, Gaussian, Inc.),
 the Gaussian 92(TM) system (copyright 1992, Gaussian, Inc.),
 the Gaussian 90(TM) system (copyright 1990, Gaussian, Inc.),
 the Gaussian 88(TM) system (copyright 1988, Gaussian, Inc.),
 the Gaussian 86(TM) system (copyright 1986, Carnegie Mellon
 University), and the Gaussian 82(TM) system (copyright 1983,
 Carnegie Mellon University). Gaussian is a federally registered
 trademark of Gaussian, Inc.
  
 This software contains proprietary and confidential information,
 including trade secrets, belonging to Gaussian, Inc.
  
 This software is provided under written license and may be
 used, copied, transmitted, or stored only in accord with that
 written license.
  
 The following legend is applicable only to US Government
 contracts under FAR:
  
                    RESTRICTED RIGHTS LEGEND
  
 Use, reproduction and disclosure by the US Government is
 subject to restrictions as set forth in subparagraphs (a)
 and (c) of the Commercial Computer Software - Restricted
 Rights clause in FAR 52.227-19.
  
 Gaussian, Inc.
 340 Quinnipiac St., Bldg. 40, Wallingford CT 06492
  
  
 ---------------------------------------------------------------
 Warning -- This program may not be used in any manner that
 competes with the business of Gaussian, Inc. or will provide
 assistance to any competitor of Gaussian, Inc.  The licensee
 of this program is prohibited from giving any competitor of
 Gaussian, Inc. access to this program.  By using this program,
 the user acknowledges that Gaussian, Inc. is engaged in the
 business of creating and licensing software in the field of
 computational chemistry and represents and warrants to the
 licensee that it is not a competitor of Gaussian, Inc. and that
 it will not use this program in any manner prohibited above.
 ---------------------------------------------------------------
  

 Cite this work as:
 Gaussian 09, Revision E.01,
 M. J. Frisch, G. W. Trucks, H. B. Schlegel, G. E. Scuseria, 
 M. A. Robb, J. R. Cheeseman, G. Scalmani, V. Barone, B. Mennucci, 
 G. A. Petersson, H. Nakatsuji, M. Caricato, X. Li, H. P. Hratchian, 
 A. F. Izmaylov, J. Bloino, G. Zheng, J. L. Sonnenberg, M. Hada, 
 M. Ehara, K. Toyota, R. Fukuda, J. Hasegawa, M. Ishida, T. Nakajima, 
 Y. Honda, O. Kitao, H. Nakai, T. Vreven, J. A. Montgomery, Jr., 
 J. E. Peralta, F. Ogliaro, M. Bearpark, J. J. Heyd, E. Brothers, 
 K. N. Kudin, V. N. Staroverov, T. Keith, R. Kobayashi, J. Normand, 
 K. Raghavachari, A. Rendell, J. C. Burant, S. S. Iyengar, J. Tomasi, 
 M. Cossi, N. Rega, J. M. Millam, M. Klene, J. E. Knox, J. B. Cross, 
 V. Bakken, C. Adamo, J. Jaramillo, R. Gomperts, R. E. Stratmann, 
 O. Yazyev, A. J. Austin, R. Cammi, C. Pomelli, J. W. Ochterski, 
 R. L. Martin, K. Morokuma, V. G. Zakrzewski, G. A. Voth, 
 P. Salvador, J. J. Dannenberg, S. Dapprich, A. D. Daniels, 
 O. Farkas, J. B. Foresman, J. V. Ortiz, J. Cioslowski, 
 and D. J. Fox, Gaussian, Inc., Wallingford CT, 2013.
 
 ******************************************
 Gaussian 09:  EM64L-G09RevE.01 30-Nov-2015
                27-Aug-2021 
 ******************************************
 %nprocshared=64
 Will use up to   64 processors via shared memory.
 %mem=128GB
 %chk=4PY_BP86_PC2_OPT_FREQ.chk
 --------------------
 #p opt freq BP86/gen
 --------------------
 1/14=-1,18=20,19=15,26=3,38=1/1,3;
 2/9=110,12=2,17=6,18=5,40=1/2;
 3/5=7,11=2,16=1,25=1,30=1,71=1,74=404/1,2,3;
 4//1;
 5/5=2,38=5/2;
 6/7=2,8=2,9=2,10=2,28=1/1;
 7//1,2,3,16;
 1/14=-1,18=20,19=15,26=3/3(2);
 2/9=110/2;
 99//99;
 2/9=110/2;
 3/5=7,6=1,11=2,16=1,25=1,30=1,71=1,74=404,82=7/1,2,3;
 4/5=5,16=3,69=1/1;
 5/5=2,38=5/2;
 7//1,2,3,16;
 1/14=-1,18=20,19=15,26=3/3(-5);
 2/9=110/2;
 6/7=2,8=2,9=2,10=2,19=2,28=1/1;
 99/9=1/99;
 Leave Link    1 at Fri Aug 27 21:11:45 2021, MaxMem= 17179869184 cpu:         5.3
 (Enter /public3/home/sc51754/softwares/g09e01/l101.exe)
 ---------------------
 4PY_BP86_PC2_OPT_FREQ
 ---------------------
 Symbolic Z-matrix:
 Charge =  0 Multiplicity = 1
 C                    -0.00018  -1.04887   1.19382 
 C                    -0.00018   0.30655   1.22857 
 C                     0.00022   1.11152   0. 
 C                    -0.00018   0.30655  -1.22857 
 C                    -0.00018  -1.04887  -1.19382 
 N                     0.00002  -1.72968   0. 
 H                    -0.00063  -1.66693   2.08522 
 H                    -0.00059   0.82774   2.17893 
 H                    -0.00059   0.82774  -2.17893 
 H                    -0.00063  -1.66693  -2.08522 
 O                     0.0006    2.34525   0. 
 H                     0.00063  -2.73716   0. 
 
 NAtoms=     12 NQM=       12 NQMF=       0 NMMI=      0 NMMIF=      0
                NMic=       0 NMicF=      0.
                    Isotopes and Nuclear Properties:
 (Nuclear quadrupole moments (NQMom) in fm**2, nuclear magnetic moments (NMagM)
  in nuclear magnetons)

  Atom         1           2           3           4           5           6           7           8           9          10
 IAtWgt=          12          12          12          12          12          14           1           1           1           1
 AtmWgt=  12.0000000  12.0000000  12.0000000  12.0000000  12.0000000  14.0030740   1.0078250   1.0078250   1.0078250   1.0078250
 NucSpn=           0           0           0           0           0           2           1           1           1           1
 AtZEff=   0.0000000   0.0000000   0.0000000   0.0000000   0.0000000   0.0000000   0.0000000   0.0000000   0.0000000   0.0000000
 NQMom=    0.0000000   0.0000000   0.0000000   0.0000000   0.0000000   2.0440000   0.0000000   0.0000000   0.0000000   0.0000000
 NMagM=    0.0000000   0.0000000   0.0000000   0.0000000   0.0000000   0.4037610   2.7928460   2.7928460   2.7928460   2.7928460
 AtZNuc=   6.0000000   6.0000000   6.0000000   6.0000000   6.0000000   7.0000000   1.0000000   1.0000000   1.0000000   1.0000000

  Atom        11          12
 IAtWgt=          16           1
 AtmWgt=  15.9949146   1.0078250
 NucSpn=           0           1
 AtZEff=   0.0000000   0.0000000
 NQMom=    0.0000000   0.0000000
 NMagM=    0.0000000   2.7928460
 AtZNuc=   8.0000000   1.0000000
 Leave Link  101 at Fri Aug 27 21:11:46 2021, MaxMem= 17179869184 cpu:         5.9
 (Enter /public3/home/sc51754/softwares/g09e01/l103.exe)

 GradGradGradGradGradGradGradGradGradGradGradGradGradGradGradGradGradGrad
 Berny optimization.
 Initialization pass.
                           ----------------------------
                           !    Initial Parameters    !
                           ! (Angstroms and Degrees)  !
 --------------------------                            --------------------------
 ! Name  Definition              Value          Derivative Info.                !
 --------------------------------------------------------------------------------
 ! R1    R(1,2)                  1.3559         estimate D2E/DX2                !
 ! R2    R(1,6)                  1.3743         estimate D2E/DX2                !
 ! R3    R(1,7)                  1.0847         estimate D2E/DX2                !
 ! R4    R(2,3)                  1.4688         estimate D2E/DX2                !
 ! R5    R(2,8)                  1.0839         estimate D2E/DX2                !
 ! R6    R(3,4)                  1.4688         estimate D2E/DX2                !
 ! R7    R(3,11)                 1.2337         estimate D2E/DX2                !
 ! R8    R(4,5)                  1.3559         estimate D2E/DX2                !
 ! R9    R(4,9)                  1.0839         estimate D2E/DX2                !
 ! R10   R(5,6)                  1.3743         estimate D2E/DX2                !
 ! R11   R(5,10)                 1.0847         estimate D2E/DX2                !
 ! R12   R(6,12)                 1.0075         estimate D2E/DX2                !
 ! A1    A(2,1,6)              121.1639         estimate D2E/DX2                !
 ! A2    A(2,1,7)              123.267          estimate D2E/DX2                !
 ! A3    A(6,1,7)              115.5691         estimate D2E/DX2                !
 ! A4    A(1,2,3)              121.7645         estimate D2E/DX2                !
 ! A5    A(1,2,8)              120.2096         estimate D2E/DX2                !
 ! A6    A(3,2,8)              118.0259         estimate D2E/DX2                !
 ! A7    A(2,3,4)              113.5338         estimate D2E/DX2                !
 ! A8    A(2,3,11)             123.2331         estimate D2E/DX2                !
 ! A9    A(4,3,11)             123.2331         estimate D2E/DX2                !
 ! A10   A(3,4,5)              121.7645         estimate D2E/DX2                !
 ! A11   A(3,4,9)              118.0259         estimate D2E/DX2                !
 ! A12   A(5,4,9)              120.2096         estimate D2E/DX2                !
 ! A13   A(4,5,6)              121.1639         estimate D2E/DX2                !
 ! A14   A(4,5,10)             123.267          estimate D2E/DX2                !
 ! A15   A(6,5,10)             115.5691         estimate D2E/DX2                !
 ! A16   A(1,6,5)              120.6094         estimate D2E/DX2                !
 ! A17   A(1,6,12)             119.6953         estimate D2E/DX2                !
 ! A18   A(5,6,12)             119.6953         estimate D2E/DX2                !
 ! D1    D(6,1,2,3)             -0.0087         estimate D2E/DX2                !
 ! D2    D(6,1,2,8)            179.9852         estimate D2E/DX2                !
 ! D3    D(7,1,2,3)           -179.9904         estimate D2E/DX2                !
 ! D4    D(7,1,2,8)              0.0035         estimate D2E/DX2                !
 ! D5    D(2,1,6,5)             -0.0199         estimate D2E/DX2                !
 ! D6    D(2,1,6,12)           179.9596         estimate D2E/DX2                !
 ! D7    D(7,1,6,5)            179.9631         estimate D2E/DX2                !
 ! D8    D(7,1,6,12)            -0.0574         estimate D2E/DX2                !
 ! D9    D(1,2,3,4)              0.0339         estimate D2E/DX2                !
 ! D10   D(1,2,3,11)          -179.9797         estimate D2E/DX2                !
 ! D11   D(8,2,3,4)           -179.9602         estimate D2E/DX2                !
 ! D12   D(8,2,3,11)             0.0262         estimate D2E/DX2                !
 ! D13   D(2,3,4,5)             -0.0339         estimate D2E/DX2                !
 ! D14   D(2,3,4,9)            179.9602         estimate D2E/DX2                !
 ! D15   D(11,3,4,5)           179.9797         estimate D2E/DX2                !
 ! D16   D(11,3,4,9)            -0.0262         estimate D2E/DX2                !
 ! D17   D(3,4,5,6)              0.0087         estimate D2E/DX2                !
 ! D18   D(3,4,5,10)           179.9904         estimate D2E/DX2                !
 ! D19   D(9,4,5,6)           -179.9852         estimate D2E/DX2                !
 ! D20   D(9,4,5,10)            -0.0035         estimate D2E/DX2                !
 ! D21   D(4,5,6,1)              0.0199         estimate D2E/DX2                !
 ! D22   D(4,5,6,12)          -179.9596         estimate D2E/DX2                !
 ! D23   D(10,5,6,1)          -179.9631         estimate D2E/DX2                !
 ! D24   D(10,5,6,12)            0.0574         estimate D2E/DX2                !
 --------------------------------------------------------------------------------
 Trust Radius=3.00D-01 FncErr=1.00D-07 GrdErr=1.00D-06
 Number of steps in this run=     64 maximum allowed number of steps=    100.
 GradGradGradGradGradGradGradGradGradGradGradGradGradGradGradGradGradGrad

 Leave Link  103 at Fri Aug 27 21:11:46 2021, MaxMem= 17179869184 cpu:         0.1
 (Enter /public3/home/sc51754/softwares/g09e01/l202.exe)
                          Input orientation:                          
 ---------------------------------------------------------------------
 Center     Atomic      Atomic             Coordinates (Angstroms)
 Number     Number       Type             X           Y           Z
 ---------------------------------------------------------------------
      1          6           0       -0.000184   -1.048866    1.193818
      2          6           0       -0.000184    0.306549    1.228568
      3          6           0        0.000221    1.111516    0.000000
      4          6           0       -0.000184    0.306549   -1.228568
      5          6           0       -0.000184   -1.048866   -1.193818
      6          7           0        0.000018   -1.729678    0.000000
      7          1           0       -0.000630   -1.666925    2.085223
      8          1           0       -0.000587    0.827738    2.178925
      9          1           0       -0.000587    0.827738   -2.178925
     10          1           0       -0.000630   -1.666925   -2.085223
     11          8           0        0.000597    2.345248    0.000000
     12          1           0        0.000630   -2.737158    0.000000
 ---------------------------------------------------------------------
                    Distance matrix (angstroms):
                    1          2          3          4          5
     1  C    0.000000
     2  C    1.355860   0.000000
     3  C    2.468289   1.468792   0.000000
     4  C    2.775807   2.457136   1.468792   0.000000
     5  C    2.387636   2.775807   2.468289   1.355860   0.000000
     6  N    1.374302   2.378150   2.841194   2.378150   1.374302
     7  H    1.084712   2.151385   3.473887   3.856917   3.336781
     8  H    2.119452   1.083890   2.197327   3.447122   3.859668
     9  H    3.859668   3.447122   2.197327   1.083890   2.119452
    10  H    3.336781   3.856917   3.473887   2.151385   1.084712
    11  O    3.597946   2.380268   1.233732   2.380268   3.597946
    12  H    2.067736   3.282306   3.848674   3.282306   2.067736
                    6          7          8          9         10
     6  N    0.000000
     7  H    2.086167   0.000000
     8  H    3.359775   2.496422   0.000000
     9  H    3.359775   4.940273   4.357850   0.000000
    10  H    2.086167   4.170446   4.940273   2.496422   0.000000
    11  O    4.074926   4.521691   2.655288   2.655288   4.521691
    12  H    1.007480   2.343833   4.178062   4.178062   2.343833
                   11         12
    11  O    0.000000
    12  H    5.082406   0.000000
 Stoichiometry    C5H5NO
 Framework group  CS[SG(CHNO),X(C4H4)]
 Deg. of freedom    17
 Full point group                 CS      NOp   2
 Largest Abelian subgroup         CS      NOp   2
 Largest concise Abelian subgroup CS      NOp   2
                         Standard orientation:                         
 ---------------------------------------------------------------------
 Center     Atomic      Atomic             Coordinates (Angstroms)
 Number     Number       Type             X           Y           Z
 ---------------------------------------------------------------------
      1          6           0        0.000184    1.048866    1.193818
      2          6           0        0.000184   -0.306549    1.228568
      3          6           0       -0.000221   -1.111516   -0.000000
      4          6           0        0.000184   -0.306549   -1.228568
      5          6           0        0.000184    1.048866   -1.193818
      6          7           0       -0.000018    1.729678    0.000000
      7          1           0        0.000630    1.666925    2.085223
      8          1           0        0.000587   -0.827738    2.178925
      9          1           0        0.000587   -0.827738   -2.178925
     10          1           0        0.000630    1.666925   -2.085223
     11          8           0       -0.000597   -2.345248   -0.000000
     12          1           0       -0.000630    2.737158    0.000000
 ---------------------------------------------------------------------
 Rotational constants (GHZ):      5.6935111      2.6926956      1.8281082
 Leave Link  202 at Fri Aug 27 21:11:46 2021, MaxMem= 17179869184 cpu:         2.5
 (Enter /public3/home/sc51754/softwares/g09e01/l301.exe)
 General basis read from cards:  (5D, 7F)
 Centers:       7      8      9     10     12
 S 4 1.00
     Exponent=  7.5423000000D+01 Coefficients=  2.4065000000D-03
     Exponent=  1.1350000000D+01 Coefficients=  1.8487000000D-02
     Exponent=  2.5993000000D+00 Coefficients=  8.9742000000D-02
     Exponent=  7.3513000000D-01 Coefficients=  2.8111000000D-01
 S 1 1.00
     Exponent=  2.3167000000D-01 Coefficients=  1.0000000000D+00
 S 1 1.00
     Exponent=  7.4147000000D-02 Coefficients=  1.0000000000D+00
 P 1 1.00
     Exponent=  1.6000000000D+00 Coefficients=  1.0000000000D+00
 P 1 1.00
     Exponent=  4.5000000000D-01 Coefficients=  1.0000000000D+00
 D 1 1.00
     Exponent=  1.2500000000D+00 Coefficients=  1.0000000000D+00
 ****
 Centers:       1      2      3      4      5
 S 7 1.00
     Exponent=  7.8571000000D+03 Coefficients=  5.6825000000D-04
     Exponent=  1.1787000000D+03 Coefficients=  4.3915000000D-03
     Exponent=  2.6832000000D+02 Coefficients=  2.2504000000D-02
     Exponent=  7.5948000000D+01 Coefficients=  8.6653000000D-02
     Exponent=  2.4559000000D+01 Coefficients=  2.4405000000D-01
     Exponent=  8.6212000000D+00 Coefficients=  4.4148000000D-01
     Exponent=  3.1278000000D+00 Coefficients=  3.5332000000D-01
 S 7 1.00
     Exponent=  1.1787000000D+03 Coefficients= -5.9492000000D-07
     Exponent=  2.6832000000D+02 Coefficients= -6.2748000000D-05
     Exponent=  7.5948000000D+01 Coefficients= -7.5773000000D-04
     Exponent=  2.4559000000D+01 Coefficients= -7.3308000000D-03
     Exponent=  8.6212000000D+00 Coefficients= -3.8932000000D-02
     Exponent=  3.1278000000D+00 Coefficients= -8.8908000000D-02
     Exponent=  8.2202000000D-01 Coefficients=  2.1689000000D-01
 S 1 1.00
     Exponent=  3.3017000000D-01 Coefficients=  1.0000000000D+00
 S 1 1.00
     Exponent=  1.1463000000D-01 Coefficients=  1.0000000000D+00
 P 4 1.00
     Exponent=  3.3775000000D+01 Coefficients=  6.0294000000D-03
     Exponent=  7.6766000000D+00 Coefficients=  4.3228000000D-02
     Exponent=  2.2357000000D+00 Coefficients=  1.6301000000D-01
     Exponent=  7.6447000000D-01 Coefficients=  3.6504000000D-01
 P 1 1.00
     Exponent=  2.6232000000D-01 Coefficients=  1.0000000000D+00
 P 1 1.00
     Exponent=  8.4638000000D-02 Coefficients=  1.0000000000D+00
 D 1 1.00
     Exponent=  1.4000000000D+00 Coefficients=  1.0000000000D+00
 D 1 1.00
     Exponent=  4.5000000000D-01 Coefficients=  1.0000000000D+00
 F 1 1.00
     Exponent=  9.5000000000D-01 Coefficients=  1.0000000000D+00
 ****
 Centers:       6
 S 7 1.00
     Exponent=  1.1101000000D+04 Coefficients=  5.4570000000D-04
     Exponent=  1.6653000000D+03 Coefficients=  4.2181000000D-03
     Exponent=  3.7908000000D+02 Coefficients=  2.1645000000D-02
     Exponent=  1.0730000000D+02 Coefficients=  8.3776000000D-02
     Exponent=  3.4747000000D+01 Coefficients=  2.3881000000D-01
     Exponent=  1.2249000000D+01 Coefficients=  4.3994000000D-01
     Exponent=  4.4743000000D+00 Coefficients=  3.6364000000D-01
 S 7 1.00
     Exponent=  1.6653000000D+03 Coefficients= -1.5006000000D-06
     Exponent=  3.7908000000D+02 Coefficients= -5.8753000000D-05
     Exponent=  1.0730000000D+02 Coefficients= -7.7453000000D-04
     Exponent=  3.4747000000D+01 Coefficients= -7.2161000000D-03
     Exponent=  1.2249000000D+01 Coefficients= -3.9338000000D-02
     Exponent=  4.4743000000D+00 Coefficients= -9.0611000000D-02
     Exponent=  1.2404000000D+00 Coefficients=  1.9882000000D-01
 S 1 1.00
     Exponent=  4.8743000000D-01 Coefficients=  1.0000000000D+00
 S 1 1.00
     Exponent=  1.6484000000D-01 Coefficients=  1.0000000000D+00
 P 4 1.00
     Exponent=  4.7934000000D+01 Coefficients=  6.1706000000D-03
     Exponent=  1.0999000000D+01 Coefficients=  4.4260000000D-02
     Exponent=  3.2472000000D+00 Coefficients=  1.6825000000D-01
     Exponent=  1.1114000000D+00 Coefficients=  3.6848000000D-01
 P 1 1.00
     Exponent=  3.7988000000D-01 Coefficients=  1.0000000000D+00
 P 1 1.00
     Exponent=  1.2068000000D-01 Coefficients=  1.0000000000D+00
 D 1 1.00
     Exponent=  1.8000000000D+00 Coefficients=  1.0000000000D+00
 D 1 1.00
     Exponent=  5.5000000000D-01 Coefficients=  1.0000000000D+00
 F 1 1.00
     Exponent=  1.0200000000D+00 Coefficients=  1.0000000000D+00
 ****
 Centers:      11
 S 7 1.00
     Exponent=  1.4782000000D+04 Coefficients=  5.3519000000D-04
     Exponent=  2.2173000000D+03 Coefficients=  4.1375000000D-03
     Exponent=  5.0474000000D+02 Coefficients=  2.1245000000D-02
     Exponent=  1.4287000000D+02 Coefficients=  8.2453000000D-02
     Exponent=  4.6300000000D+01 Coefficients=  2.3671000000D-01
     Exponent=  1.6337000000D+01 Coefficients=  4.4039000000D-01
     Exponent=  5.9828000000D+00 Coefficients=  3.6465000000D-01
 S 7 1.00
     Exponent=  2.2173000000D+03 Coefficients= -1.9275000000D-06
     Exponent=  5.0474000000D+02 Coefficients= -5.7964000000D-05
     Exponent=  1.4287000000D+02 Coefficients= -7.9494000000D-04
     Exponent=  4.6300000000D+01 Coefficients= -7.3125000000D-03
     Exponent=  1.6337000000D+01 Coefficients= -4.0574000000D-02
     Exponent=  5.9828000000D+00 Coefficients= -9.1594000000D-02
     Exponent=  1.6718000000D+00 Coefficients=  2.0940000000D-01
 S 1 1.00
     Exponent=  6.4662000000D-01 Coefficients=  1.0000000000D+00
 S 1 1.00
     Exponent=  2.1669000000D-01 Coefficients=  1.0000000000D+00
 P 4 1.00
     Exponent=  6.0424000000D+01 Coefficients=  6.8949000000D-03
     Exponent=  1.3935000000D+01 Coefficients=  4.9005000000D-02
     Exponent=  4.1531000000D+00 Coefficients=  1.8255000000D-01
     Exponent=  1.4158000000D+00 Coefficients=  3.7633000000D-01
 P 1 1.00
     Exponent=  4.7549000000D-01 Coefficients=  1.0000000000D+00
 P 1 1.00
     Exponent=  1.4529000000D-01 Coefficients=  1.0000000000D+00
 D 1 1.00
     Exponent=  2.2000000000D+00 Coefficients=  1.0000000000D+00
 D 1 1.00
     Exponent=  6.5000000000D-01 Coefficients=  1.0000000000D+00
 F 1 1.00
     Exponent=  1.1000000000D+00 Coefficients=  1.0000000000D+00
 ****
 Ernie: Thresh=  0.10000D-02 Tol=  0.10000D-05 Strict=F.
 Ernie:  7 primitive shells out of 220 were deleted.
 There are   183 symmetry adapted cartesian basis functions of A'  symmetry.
 There are   137 symmetry adapted cartesian basis functions of A"  symmetry.
 There are   158 symmetry adapted basis functions of A'  symmetry.
 There are   122 symmetry adapted basis functions of A"  symmetry.
   280 basis functions,   475 primitive gaussians,   320 cartesian basis functions
    25 alpha electrons       25 beta electrons
       nuclear repulsion energy       273.2804388411 Hartrees.
 IExCor=  404 DFT=T Ex=B Corr=P86 ExCW=0 ScaHFX=  0.000000
 ScaDFX=  1.000000  1.000000  1.000000  1.000000 ScalE2=  1.000000  1.000000
 IRadAn=      0 IRanWt=     -1 IRanGd=            0 ICorTp=0 IEmpDi=  4
 NAtoms=   12 NActive=   12 NUniq=    8 SFac= 2.25D+00 NAtFMM=   60 NAOKFM=F Big=F
 Integral buffers will be    131072 words long.
 Raffenetti 2 integral format.
 Two-electron integral symmetry is turned on.
 Leave Link  301 at Fri Aug 27 21:11:46 2021, MaxMem= 17179869184 cpu:         1.6
 (Enter /public3/home/sc51754/softwares/g09e01/l302.exe)
 NPDir=0 NMtPBC=     1 NCelOv=     1 NCel=       1 NClECP=     1 NCelD=      1
         NCelK=      1 NCelE2=     1 NClLst=     1 CellRange=     0.0.
 One-electron integrals computed using PRISM.
 One-electron integral symmetry used in STVInt
 NBasis=   280 RedAO= T EigKep=  1.83D-04  NBF=   158   122
 NBsUse=   280 1.00D-06 EigRej= -1.00D+00 NBFU=   158   122
 Precomputing XC quadrature grid using
 IXCGrd= 4 IRadAn=           0 IRanWt=          -1 IRanGd=           0 AccXCQ= 0.00D+00.
 Generated NRdTot=       0 NPtTot=           0 NUsed=           0 NTot=          32
 NSgBfM=   320   320   320   320   320 MxSgAt=    12 MxSgA2=    12.
 Leave Link  302 at Fri Aug 27 21:11:47 2021, MaxMem= 17179869184 cpu:        54.3
 (Enter /public3/home/sc51754/softwares/g09e01/l303.exe)
 DipDrv:  MaxL=1.
 Leave Link  303 at Fri Aug 27 21:11:47 2021, MaxMem= 17179869184 cpu:        17.5
 (Enter /public3/home/sc51754/softwares/g09e01/l401.exe)
 ExpMin= 7.41D-02 ExpMax= 1.48D+04 ExpMxC= 5.05D+02 IAcc=2 IRadAn=         4 AccDes= 0.00D+00
 Harris functional with IExCor=  404 and IRadAn=       4 diagonalized for initial guess.
 HarFok:  IExCor=  404 AccDes= 0.00D+00 IRadAn=         4 IDoV= 1 UseB2=F ITyADJ=14
 ICtDFT=  3500011 ScaDFX=  1.000000  1.000000  1.000000  1.000000
 FoFCou: FMM=F IPFlag=           0 FMFlag=      100000 FMFlg1=           0
         NFxFlg=           0 DoJE=T BraDBF=F KetDBF=T FulRan=T
         wScrn=  0.000000 ICntrl=     500 IOpCl=  0 I1Cent=   200000004 NGrid=           0
         NMat0=    1 NMatS0=      1 NMatT0=    0 NMatD0=    1 NMtDS0=    0 NMtDT0=    0
 Petite list used in FoFCou.
 Harris En= -323.763906990873    
 JPrj=0 DoOrth=F DoCkMO=F.
 Initial guess orbital symmetries:
       Occupied  (A') (A') (A") (A') (A") (A') (A') (A') (A') (A')
                 (A") (A") (A') (A') (A") (A') (A') (A") (A') (A')
                 (A") (A') (A") (A") (A')
       Virtual   (A') (A") (A') (A') (A") (A') (A') (A") (A') (A')
                 (A") (A') (A') (A") (A") (A") (A') (A') (A") (A')
                 (A") (A') (A") (A') (A') (A') (A") (A') (A") (A')
                 (A') (A") (A') (A') (A') (A") (A') (A") (A") (A')
                 (A") (A') (A') (A') (A") (A') (A") (A") (A") (A')
                 (A') (A") (A') (A") (A') (A') (A') (A") (A') (A')
                 (A') (A') (A") (A') (A") (A") (A') (A') (A") (A')
                 (A") (A") (A") (A') (A") (A') (A') (A") (A') (A")
                 (A') (A') (A") (A") (A') (A') (A') (A') (A") (A')
                 (A") (A") (A') (A") (A") (A') (A') (A") (A') (A')
                 (A") (A') (A") (A") (A') (A") (A') (A') (A") (A')
                 (A') (A") (A') (A") (A") (A') (A') (A') (A") (A")
                 (A") (A') (A') (A") (A') (A") (A') (A") (A') (A")
                 (A') (A") (A') (A") (A') (A') (A') (A") (A') (A')
                 (A") (A") (A") (A') (A") (A') (A') (A') (A') (A")
                 (A') (A") (A') (A') (A") (A") (A') (A") (A") (A')
                 (A') (A") (A') (A") (A') (A') (A") (A") (A") (A")
                 (A') (A') (A") (A') (A') (A") (A") (A') (A') (A')
                 (A") (A') (A") (A') (A") (A') (A') (A") (A') (A")
                 (A") (A") (A') (A') (A") (A') (A") (A') (A") (A')
                 (A') (A') (A') (A") (A") (A") (A") (A') (A') (A')
                 (A') (A') (A") (A") (A") (A') (A") (A') (A") (A')
                 (A') (A") (A") (A') (A") (A") (A') (A") (A') (A")
                 (A') (A') (A") (A') (A') (A') (A") (A") (A") (A')
                 (A') (A') (A") (A') (A") (A') (A') (A") (A') (A')
                 (A") (A') (A") (A') (A')
 The electronic state of the initial guess is 1-A'.
 Leave Link  401 at Fri Aug 27 21:11:48 2021, MaxMem= 17179869184 cpu:        58.3
 (Enter /public3/home/sc51754/softwares/g09e01/l502.exe)
 Closed shell SCF:
 Using DIIS extrapolation, IDIIS=  1040.
 Integral symmetry usage will be decided dynamically.
 Keep J ints in memory in symmetry-blocked form, NReq=1161351758.
 IVT=      348938 IEndB=      348938 NGot= 17179869184 MDV= 16792355177
 LenX= 16792355177 LenY= 16792252336
 Requested convergence on RMS density matrix=1.00D-08 within 128 cycles.
 Requested convergence on MAX density matrix=1.00D-06.
 Requested convergence on             energy=1.00D-06.
 No special actions if energy rises.
 FoFCou: FMM=F IPFlag=           0 FMFlag=           0 FMFlg1=           0
         NFxFlg=           0 DoJE=F BraDBF=F KetDBF=F FulRan=T
         wScrn=  0.000000 ICntrl=     600 IOpCl=  0 I1Cent=           0 NGrid=           0
         NMat0=    1 NMatS0=  39340 NMatT0=    0 NMatD0=    1 NMtDS0=    0 NMtDT0=    0
 Petite list used in FoFCou.
 Integral accuracy reduced to 1.0D-05 until final iterations.

 Cycle   1  Pass 0  IDiag  1:
 E= -323.449268143861    
 DIIS: error= 3.17D-02 at cycle   1 NSaved=   1.
 NSaved= 1 IEnMin= 1 EnMin= -323.449268143861     IErMin= 1 ErrMin= 3.17D-02
 ErrMax= 3.17D-02  0.00D+00 EMaxC= 1.00D-01 BMatC= 1.99D-01 BMatP= 1.99D-01
 IDIUse=3 WtCom= 6.83D-01 WtEn= 3.17D-01
 Coeff-Com:  0.100D+01
 Coeff-En:   0.100D+01
 Coeff:      0.100D+01
 Gap=    -0.038 Goal=   None    Shift=    0.000
 GapD=   -0.038 DampG=0.250 DampE=0.500 DampFc=0.2500 IDamp=-1.
 Damping current iteration by 2.50D-01
 RMSDP=1.80D-02 MaxDP=2.41D+00              OVMax= 9.92D-01

 Cycle   2  Pass 0  IDiag  1:
 E= -323.364251635636     Delta-E=        0.085016508226 Rises=F Damp=T
 DIIS: error= 1.62D-02 at cycle   2 NSaved=   2.
 NSaved= 2 IEnMin= 1 EnMin= -323.449268143861     IErMin= 2 ErrMin= 1.62D-02
 ErrMax= 1.62D-02  0.00D+00 EMaxC= 1.00D-01 BMatC= 5.53D-02 BMatP= 1.99D-01
 IDIUse=3 WtCom= 8.38D-01 WtEn= 1.62D-01
 Coeff-Com:  0.218D+00 0.782D+00
 Coeff-En:   0.644D+00 0.356D+00
 Coeff:      0.287D+00 0.713D+00
 Gap=     0.019 Goal=   None    Shift=    0.000
 RMSDP=4.64D-03 MaxDP=5.98D-01 DE= 8.50D-02 OVMax= 8.58D-01

 Cycle   3  Pass 0  IDiag  1:
 E= -323.409413654415     Delta-E=       -0.045162018779 Rises=F Damp=F
 DIIS: error= 3.59D-02 at cycle   3 NSaved=   3.
 NSaved= 3 IEnMin= 1 EnMin= -323.449268143861     IErMin= 2 ErrMin= 1.62D-02
 ErrMax= 3.59D-02  0.00D+00 EMaxC= 1.00D-01 BMatC= 2.09D-01 BMatP= 5.53D-02
 IDIUse=2 WtCom= 0.00D+00 WtEn= 1.00D+00
 EnCoef did     3 forward-backward iterations
 Coeff-En:   0.279D+00 0.342D+00 0.380D+00
 Coeff:      0.279D+00 0.342D+00 0.380D+00
 Gap=     0.119 Goal=   None    Shift=    0.000
 RMSDP=3.39D-03 MaxDP=1.31D-01 DE=-4.52D-02 OVMax= 5.55D-01

 Cycle   4  Pass 0  IDiag  1:
 E= -323.351742541301     Delta-E=        0.057671113113 Rises=F Damp=F
 DIIS: error= 4.25D-02 at cycle   4 NSaved=   4.
 NSaved= 4 IEnMin= 1 EnMin= -323.449268143861     IErMin= 2 ErrMin= 1.62D-02
 ErrMax= 4.25D-02  0.00D+00 EMaxC= 1.00D-01 BMatC= 3.01D-01 BMatP= 5.53D-02
 IDIUse=2 WtCom= 0.00D+00 WtEn= 1.00D+00
 EnCoef did     4 forward-backward iterations
 Coeff-En:   0.228D+00 0.000D+00 0.364D+00 0.408D+00
 Coeff:      0.228D+00 0.000D+00 0.364D+00 0.408D+00
 Gap=     0.121 Goal=   None    Shift=    0.000
 RMSDP=2.21D-03 MaxDP=8.53D-02 DE= 5.77D-02 OVMax= 3.14D-01

 Cycle   5  Pass 0  IDiag  1:
 E= -323.639327910063     Delta-E=       -0.287585368762 Rises=F Damp=F
 DIIS: error= 5.62D-03 at cycle   5 NSaved=   5.
 NSaved= 5 IEnMin= 5 EnMin= -323.639327910063     IErMin= 5 ErrMin= 5.62D-03
 ErrMax= 5.62D-03  0.00D+00 EMaxC= 1.00D-01 BMatC= 7.35D-03 BMatP= 5.53D-02
 IDIUse=3 WtCom= 9.44D-01 WtEn= 5.62D-02
 Coeff-Com: -0.541D-02 0.190D+00 0.173D+00 0.939D-01 0.548D+00
 Coeff-En:   0.000D+00 0.000D+00 0.000D+00 0.000D+00 0.100D+01
 Coeff:     -0.511D-02 0.179D+00 0.163D+00 0.886D-01 0.574D+00
 Gap=     0.140 Goal=   None    Shift=    0.000
 RMSDP=3.94D-04 MaxDP=2.33D-02 DE=-2.88D-01 OVMax= 4.89D-02

 Cycle   6  Pass 0  IDiag  1:
 E= -323.640178763889     Delta-E=       -0.000850853826 Rises=F Damp=F
 DIIS: error= 5.06D-03 at cycle   6 NSaved=   6.
 NSaved= 6 IEnMin= 6 EnMin= -323.640178763889     IErMin= 6 ErrMin= 5.06D-03
 ErrMax= 5.06D-03  0.00D+00 EMaxC= 1.00D-01 BMatC= 4.57D-03 BMatP= 7.35D-03
 IDIUse=3 WtCom= 9.49D-01 WtEn= 5.06D-02
 Coeff-Com: -0.752D-01 0.106D+00 0.127D-01 0.113D-01 0.382D+00 0.564D+00
 Coeff-En:   0.000D+00 0.000D+00 0.000D+00 0.000D+00 0.453D+00 0.547D+00
 Coeff:     -0.714D-01 0.100D+00 0.120D-01 0.107D-01 0.385D+00 0.563D+00
 Gap=     0.134 Goal=   None    Shift=    0.000
 RMSDP=1.95D-04 MaxDP=7.99D-03 DE=-8.51D-04 OVMax= 2.72D-02

 Cycle   7  Pass 0  IDiag  1:
 E= -323.644890726638     Delta-E=       -0.004711962749 Rises=F Damp=F
 DIIS: error= 2.50D-03 at cycle   7 NSaved=   7.
 NSaved= 7 IEnMin= 7 EnMin= -323.644890726638     IErMin= 7 ErrMin= 2.50D-03
 ErrMax= 2.50D-03  0.00D+00 EMaxC= 1.00D-01 BMatC= 7.38D-04 BMatP= 4.57D-03
 IDIUse=3 WtCom= 9.75D-01 WtEn= 2.50D-02
 Coeff-Com: -0.464D-01 0.522D-01-0.106D-01 0.121D-01 0.178D+00 0.239D+00
 Coeff-Com:  0.575D+00
 Coeff-En:   0.000D+00 0.000D+00 0.000D+00 0.000D+00 0.000D+00 0.000D+00
 Coeff-En:   0.100D+01
 Coeff:     -0.452D-01 0.509D-01-0.103D-01 0.118D-01 0.174D+00 0.233D+00
 Coeff:      0.586D+00
 Gap=     0.130 Goal=   None    Shift=    0.000
 RMSDP=6.62D-05 MaxDP=2.42D-03 DE=-4.71D-03 OVMax= 8.37D-03

 Cycle   8  Pass 0  IDiag  1:
 E= -323.645431071711     Delta-E=       -0.000540345073 Rises=F Damp=F
 DIIS: error= 1.28D-03 at cycle   8 NSaved=   8.
 NSaved= 8 IEnMin= 8 EnMin= -323.645431071711     IErMin= 8 ErrMin= 1.28D-03
 ErrMax= 1.28D-03  0.00D+00 EMaxC= 1.00D-01 BMatC= 2.33D-04 BMatP= 7.38D-04
 IDIUse=3 WtCom= 9.87D-01 WtEn= 1.28D-02
 Coeff-Com: -0.234D-01 0.232D-01-0.125D-01 0.109D-01 0.576D-01 0.445D-01
 Coeff-Com:  0.389D+00 0.511D+00
 Coeff-En:   0.000D+00 0.000D+00 0.000D+00 0.000D+00 0.000D+00 0.000D+00
 Coeff-En:   0.000D+00 0.100D+01
 Coeff:     -0.231D-01 0.229D-01-0.124D-01 0.108D-01 0.569D-01 0.440D-01
 Coeff:      0.384D+00 0.517D+00
 Gap=     0.128 Goal=   None    Shift=    0.000
 RMSDP=4.45D-05 MaxDP=1.12D-03 DE=-5.40D-04 OVMax= 7.43D-03

 Cycle   9  Pass 0  IDiag  1:
 E= -323.645678111838     Delta-E=       -0.000247040128 Rises=F Damp=F
 DIIS: error= 5.83D-04 at cycle   9 NSaved=   9.
 NSaved= 9 IEnMin= 9 EnMin= -323.645678111838     IErMin= 9 ErrMin= 5.83D-04
 ErrMax= 5.83D-04  0.00D+00 EMaxC= 1.00D-01 BMatC= 5.28D-05 BMatP= 2.33D-04
 IDIUse=3 WtCom= 9.94D-01 WtEn= 5.83D-03
 Coeff-Com: -0.213D-02-0.242D-03-0.564D-02 0.512D-02-0.206D-01-0.623D-01
 Coeff-Com: -0.348D-01 0.422D+00 0.698D+00
 Coeff-En:   0.000D+00 0.000D+00 0.000D+00 0.000D+00 0.000D+00 0.000D+00
 Coeff-En:   0.000D+00 0.000D+00 0.100D+01
 Coeff:     -0.212D-02-0.241D-03-0.561D-02 0.509D-02-0.205D-01-0.619D-01
 Coeff:     -0.346D-01 0.420D+00 0.700D+00
 Gap=     0.126 Goal=   None    Shift=    0.000
 RMSDP=2.94D-05 MaxDP=1.18D-03 DE=-2.47D-04 OVMax= 3.71D-03

 Cycle  10  Pass 0  IDiag  1:
 E= -323.645724356318     Delta-E=       -0.000046244479 Rises=F Damp=F
 DIIS: error= 9.33D-05 at cycle  10 NSaved=  10.
 NSaved=10 IEnMin=10 EnMin= -323.645724356318     IErMin=10 ErrMin= 9.33D-05
 ErrMax= 9.33D-05  0.00D+00 EMaxC= 1.00D-01 BMatC= 1.61D-06 BMatP= 5.28D-05
 IDIUse=1 WtCom= 1.00D+00 WtEn= 0.00D+00
 Coeff-Com: -0.338D-03-0.799D-03-0.275D-02 0.275D-02-0.140D-01-0.381D-01
 Coeff-Com: -0.429D-01 0.229D+00 0.444D+00 0.423D+00
 Coeff:     -0.338D-03-0.799D-03-0.275D-02 0.275D-02-0.140D-01-0.381D-01
 Coeff:     -0.429D-01 0.229D+00 0.444D+00 0.423D+00
 Gap=     0.126 Goal=   None    Shift=    0.000
 RMSDP=2.97D-06 MaxDP=2.19D-04 DE=-4.62D-05 OVMax= 3.97D-04

 Initial convergence to 1.0D-05 achieved.  Increase integral accuracy.
 Cycle  11  Pass 1  IDiag  1:
 E= -323.645785955920     Delta-E=       -0.000061599603 Rises=F Damp=F
 DIIS: error= 4.28D-05 at cycle   1 NSaved=   1.
 NSaved= 1 IEnMin= 1 EnMin= -323.645785955920     IErMin= 1 ErrMin= 4.28D-05
 ErrMax= 4.28D-05  0.00D+00 EMaxC= 1.00D-01 BMatC= 3.09D-07 BMatP= 3.09D-07
 IDIUse=1 WtCom= 1.00D+00 WtEn= 0.00D+00
 Coeff-Com:  0.100D+01
 Coeff:      0.100D+01
 Gap=     0.126 Goal=   None    Shift=    0.000
 RMSDP=2.97D-06 MaxDP=2.19D-04 DE=-6.16D-05 OVMax= 4.32D-04

 Cycle  12  Pass 1  IDiag  1:
 E= -323.645786230867     Delta-E=       -0.000000274947 Rises=F Damp=F
 DIIS: error= 3.26D-05 at cycle   2 NSaved=   2.
 NSaved= 2 IEnMin= 2 EnMin= -323.645786230867     IErMin= 2 ErrMin= 3.26D-05
 ErrMax= 3.26D-05  0.00D+00 EMaxC= 1.00D-01 BMatC= 2.41D-07 BMatP= 3.09D-07
 IDIUse=1 WtCom= 1.00D+00 WtEn= 0.00D+00
 Coeff-Com:  0.456D+00 0.544D+00
 Coeff:      0.456D+00 0.544D+00
 Gap=     0.126 Goal=   None    Shift=    0.000
 RMSDP=2.74D-06 MaxDP=1.10D-04 DE=-2.75D-07 OVMax= 4.55D-04

 Cycle  13  Pass 1  IDiag  1:
 E= -323.645786124136     Delta-E=        0.000000106731 Rises=F Damp=F
 DIIS: error= 3.18D-05 at cycle   3 NSaved=   3.
 NSaved= 3 IEnMin= 2 EnMin= -323.645786230867     IErMin= 3 ErrMin= 3.18D-05
 ErrMax= 3.18D-05  0.00D+00 EMaxC= 1.00D-01 BMatC= 2.28D-07 BMatP= 2.41D-07
 IDIUse=1 WtCom= 1.00D+00 WtEn= 0.00D+00
 Coeff-Com:  0.932D-01 0.467D+00 0.439D+00
 Coeff:      0.932D-01 0.467D+00 0.439D+00
 Gap=     0.126 Goal=   None    Shift=    0.000
 RMSDP=2.09D-06 MaxDP=7.81D-05 DE= 1.07D-07 OVMax= 3.90D-04

 Cycle  14  Pass 1  IDiag  1:
 E= -323.645786424776     Delta-E=       -0.000000300640 Rises=F Damp=F
 DIIS: error= 1.96D-05 at cycle   4 NSaved=   4.
 NSaved= 4 IEnMin= 4 EnMin= -323.645786424776     IErMin= 4 ErrMin= 1.96D-05
 ErrMax= 1.96D-05  0.00D+00 EMaxC= 1.00D-01 BMatC= 7.11D-08 BMatP= 2.28D-07
 IDIUse=1 WtCom= 1.00D+00 WtEn= 0.00D+00
 Coeff-Com: -0.593D-02 0.316D+00 0.370D+00 0.320D+00
 Coeff:     -0.593D-02 0.316D+00 0.370D+00 0.320D+00
 Gap=     0.126 Goal=   None    Shift=    0.000
 RMSDP=7.91D-07 MaxDP=3.68D-05 DE=-3.01D-07 OVMax= 1.53D-04

 Cycle  15  Pass 1  IDiag  1:
 E= -323.645786487137     Delta-E=       -0.000000062361 Rises=F Damp=F
 DIIS: error= 2.45D-06 at cycle   5 NSaved=   5.
 NSaved= 5 IEnMin= 5 EnMin= -323.645786487137     IErMin= 5 ErrMin= 2.45D-06
 ErrMax= 2.45D-06  0.00D+00 EMaxC= 1.00D-01 BMatC= 1.26D-09 BMatP= 7.11D-08
 IDIUse=1 WtCom= 1.00D+00 WtEn= 0.00D+00
 Coeff-Com: -0.721D-02 0.184D+00 0.215D+00 0.207D+00 0.402D+00
 Coeff:     -0.721D-02 0.184D+00 0.215D+00 0.207D+00 0.402D+00
 Gap=     0.126 Goal=   None    Shift=    0.000
 RMSDP=1.13D-07 MaxDP=5.57D-06 DE=-6.24D-08 OVMax= 1.62D-05

 Cycle  16  Pass 1  IDiag  1:
 E= -323.645786487989     Delta-E=       -0.000000000852 Rises=F Damp=F
 DIIS: error= 1.26D-06 at cycle   6 NSaved=   6.
 NSaved= 6 IEnMin= 6 EnMin= -323.645786487989     IErMin= 6 ErrMin= 1.26D-06
 ErrMax= 1.26D-06  0.00D+00 EMaxC= 1.00D-01 BMatC= 2.66D-10 BMatP= 1.26D-09
 IDIUse=1 WtCom= 1.00D+00 WtEn= 0.00D+00
 Coeff-Com: -0.401D-02 0.758D-01 0.867D-01 0.950D-01 0.303D+00 0.444D+00
 Coeff:     -0.401D-02 0.758D-01 0.867D-01 0.950D-01 0.303D+00 0.444D+00
 Gap=     0.126 Goal=   None    Shift=    0.000
 RMSDP=4.64D-08 MaxDP=1.86D-06 DE=-8.52D-10 OVMax= 5.64D-06

 Cycle  17  Pass 1  IDiag  1:
 E= -323.645786488225     Delta-E=       -0.000000000236 Rises=F Damp=F
 DIIS: error= 1.94D-07 at cycle   7 NSaved=   7.
 NSaved= 7 IEnMin= 7 EnMin= -323.645786488225     IErMin= 7 ErrMin= 1.94D-07
 ErrMax= 1.94D-07  0.00D+00 EMaxC= 1.00D-01 BMatC= 8.15D-12 BMatP= 2.66D-10
 IDIUse=1 WtCom= 1.00D+00 WtEn= 0.00D+00
 Coeff-Com: -0.124D-02 0.222D-01 0.250D-01 0.288D-01 0.115D+00 0.227D+00
 Coeff-Com:  0.583D+00
 Coeff:     -0.124D-02 0.222D-01 0.250D-01 0.288D-01 0.115D+00 0.227D+00
 Coeff:      0.583D+00
 Gap=     0.126 Goal=   None    Shift=    0.000
 RMSDP=1.13D-08 MaxDP=3.81D-07 DE=-2.36D-10 OVMax= 8.87D-07

 Cycle  18  Pass 1  IDiag  1:
 E= -323.645786488244     Delta-E=       -0.000000000019 Rises=F Damp=F
 DIIS: error= 6.99D-08 at cycle   8 NSaved=   8.
 NSaved= 8 IEnMin= 8 EnMin= -323.645786488244     IErMin= 8 ErrMin= 6.99D-08
 ErrMax= 6.99D-08  0.00D+00 EMaxC= 1.00D-01 BMatC= 1.06D-12 BMatP= 8.15D-12
 IDIUse=1 WtCom= 1.00D+00 WtEn= 0.00D+00
 Coeff-Com: -0.869D-04 0.684D-03 0.848D-03 0.992D-03 0.161D-01 0.556D-01
 Coeff-Com:  0.310D+00 0.616D+00
 Coeff:     -0.869D-04 0.684D-03 0.848D-03 0.992D-03 0.161D-01 0.556D-01
 Coeff:      0.310D+00 0.616D+00
 Gap=     0.126 Goal=   None    Shift=    0.000
 RMSDP=4.49D-09 MaxDP=1.77D-07 DE=-1.91D-11 OVMax= 5.03D-07

 SCF Done:  E(RB-P86) =  -323.645786488     A.U. after   18 cycles
            NFock= 18  Conv=0.45D-08     -V/T= 2.0038
 KE= 3.224060920511D+02 PE=-1.301770318157D+03 EE= 3.824380007770D+02
 Leave Link  502 at Fri Aug 27 21:11:55 2021, MaxMem= 17179869184 cpu:       237.8
 (Enter /public3/home/sc51754/softwares/g09e01/l601.exe)
 Copying SCF densities to generalized density rwf, IOpCl= 0 IROHF=0.

 **********************************************************************

            Population analysis using the SCF density.

 **********************************************************************

 Orbital symmetries:
       Occupied  (A') (A') (A") (A') (A') (A") (A') (A') (A') (A')
                 (A") (A") (A') (A') (A") (A') (A") (A') (A') (A")
                 (A') (A') (A") (A') (A")
       Virtual   (A") (A') (A') (A") (A') (A') (A") (A') (A') (A')
                 (A') (A") (A') (A") (A") (A") (A') (A') (A") (A')
                 (A") (A") (A') (A') (A') (A') (A") (A') (A") (A')
                 (A') (A') (A") (A') (A') (A') (A") (A") (A") (A")
                 (A') (A') (A') (A") (A') (A") (A') (A") (A") (A')
                 (A') (A") (A') (A") (A') (A') (A") (A') (A') (A')
                 (A') (A") (A') (A") (A') (A") (A') (A') (A") (A")
                 (A') (A') (A") (A") (A") (A') (A') (A") (A") (A')
                 (A') (A') (A") (A") (A') (A') (A') (A') (A") (A')
                 (A") (A") (A') (A') (A") (A") (A') (A') (A") (A')
                 (A") (A') (A") (A") (A") (A') (A') (A') (A") (A')
                 (A') (A") (A') (A") (A") (A') (A') (A') (A") (A")
                 (A") (A') (A") (A') (A') (A") (A') (A") (A') (A')
                 (A") (A") (A') (A") (A') (A') (A') (A") (A') (A')
                 (A") (A") (A") (A') (A") (A') (A') (A') (A') (A")
                 (A') (A") (A') (A') (A") (A') (A") (A") (A") (A')
                 (A') (A') (A") (A") (A") (A') (A") (A') (A") (A")
                 (A') (A') (A") (A') (A') (A') (A") (A") (A') (A")
                 (A') (A') (A') (A") (A') (A") (A") (A') (A') (A")
                 (A") (A') (A") (A") (A') (A') (A') (A') (A") (A")
                 (A') (A') (A') (A") (A") (A") (A') (A") (A') (A')
                 (A') (A") (A') (A") (A") (A') (A") (A') (A") (A')
                 (A') (A") (A") (A') (A") (A") (A') (A") (A') (A")
                 (A') (A') (A") (A') (A') (A") (A') (A") (A") (A')
                 (A') (A") (A') (A') (A") (A') (A') (A") (A') (A')
                 (A") (A') (A") (A') (A')
 The electronic state is 1-A'.
 Alpha  occ. eigenvalues --  -18.71484 -14.08056  -9.96457  -9.96457  -9.96003
 Alpha  occ. eigenvalues --   -9.90759  -9.90759  -0.92453  -0.91163  -0.72437
 Alpha  occ. eigenvalues --   -0.72379  -0.59633  -0.57142  -0.54416  -0.46232
 Alpha  occ. eigenvalues --   -0.43463  -0.41515  -0.40185  -0.39943  -0.34057
 Alpha  occ. eigenvalues --   -0.33901  -0.33026  -0.26597  -0.20766  -0.18715
 Alpha virt. eigenvalues --   -0.06079  -0.05971  -0.02660   0.02032   0.03188
 Alpha virt. eigenvalues --    0.06345   0.06355   0.07814   0.10019   0.12751
 Alpha virt. eigenvalues --    0.13339   0.13580   0.13906   0.16454   0.16889
 Alpha virt. eigenvalues --    0.19528   0.20248   0.20327   0.24934   0.25173
 Alpha virt. eigenvalues --    0.25174   0.26544   0.26621   0.26868   0.27314
 Alpha virt. eigenvalues --    0.28150   0.30506   0.31469   0.32301   0.36847
 Alpha virt. eigenvalues --    0.39361   0.40193   0.41271   0.42340   0.44765
 Alpha virt. eigenvalues --    0.46298   0.46848   0.51109   0.51667   0.53531
 Alpha virt. eigenvalues --    0.53994   0.56132   0.59595   0.61647   0.65318
 Alpha virt. eigenvalues --    0.67235   0.67373   0.69558   0.72256   0.75043
 Alpha virt. eigenvalues --    0.75558   0.79039   0.83952   0.84715   0.84856
 Alpha virt. eigenvalues --    0.89190   0.92524   0.92553   0.93922   1.00194
 Alpha virt. eigenvalues --    1.04082   1.05038   1.05336   1.05364   1.07349
 Alpha virt. eigenvalues --    1.11209   1.12738   1.13374   1.14951   1.15860
 Alpha virt. eigenvalues --    1.18056   1.18617   1.19411   1.21563   1.26380
 Alpha virt. eigenvalues --    1.27254   1.27562   1.34988   1.35858   1.37456
 Alpha virt. eigenvalues --    1.38610   1.39655   1.39852   1.40022   1.47628
 Alpha virt. eigenvalues --    1.48796   1.51815   1.55737   1.57652   1.57908
 Alpha virt. eigenvalues --    1.59059   1.61771   1.67021   1.68910   1.69246
 Alpha virt. eigenvalues --    1.69564   1.74190   1.74356   1.75898   1.81752
 Alpha virt. eigenvalues --    1.82941   1.86261   1.88285   1.92837   1.95022
 Alpha virt. eigenvalues --    1.95111   2.01950   2.04040   2.07997   2.10122
 Alpha virt. eigenvalues --    2.11645   2.13847   2.15892   2.18773   2.31465
 Alpha virt. eigenvalues --    2.31532   2.41119   2.42081   2.54490   2.70329
 Alpha virt. eigenvalues --    2.77151   2.81785   2.85317   2.85348   3.03088
 Alpha virt. eigenvalues --    3.07045   3.09938   3.11297   3.14378   3.14401
 Alpha virt. eigenvalues --    3.17196   3.20347   3.22891   3.25674   3.26298
 Alpha virt. eigenvalues --    3.34129   3.36428   3.40994   3.43320   3.45270
 Alpha virt. eigenvalues --    3.48900   3.53260   3.54021   3.55411   3.56504
 Alpha virt. eigenvalues --    3.58137   3.59974   3.66787   3.72267   3.78779
 Alpha virt. eigenvalues --    3.85351   3.85425   3.86190   3.86910   3.88677
 Alpha virt. eigenvalues --    3.91222   3.92714   3.93368   3.97851   3.98593
 Alpha virt. eigenvalues --    3.98992   4.01603   4.01639   4.04734   4.08256
 Alpha virt. eigenvalues --    4.08886   4.09588   4.10292   4.12566   4.13040
 Alpha virt. eigenvalues --    4.13439   4.17054   4.19282   4.19618   4.20583
 Alpha virt. eigenvalues --    4.22561   4.22959   4.24239   4.27853   4.28672
 Alpha virt. eigenvalues --    4.29845   4.31789   4.35288   4.36146   4.37534
 Alpha virt. eigenvalues --    4.37692   4.42742   4.42981   4.44254   4.46591
 Alpha virt. eigenvalues --    4.51185   4.51301   4.51684   4.56284   4.56711
 Alpha virt. eigenvalues --    4.61410   4.66357   4.67700   4.67968   4.68807
 Alpha virt. eigenvalues --    4.76813   4.83703   4.84390   4.84553   4.86295
 Alpha virt. eigenvalues --    4.89055   4.97397   4.99021   5.01297   5.08768
 Alpha virt. eigenvalues --    5.09270   5.14338   5.17153   5.17838   5.19145
 Alpha virt. eigenvalues --    5.23242   5.24294   5.32483   5.33832   5.34086
 Alpha virt. eigenvalues --    5.36574   5.38668   5.45657   5.49978   5.50174
 Alpha virt. eigenvalues --    5.50390   5.57249   5.59424   5.62426   5.66723
 Alpha virt. eigenvalues --    5.67881   5.79054   5.81503   5.84179   5.85161
 Alpha virt. eigenvalues --    5.97750   5.99032   6.03770   6.06308   6.13598
 Alpha virt. eigenvalues --    6.25126   6.39285   6.40412   6.40844   6.71896
 Alpha virt. eigenvalues --    6.77909   6.83958   7.09866   9.34941  12.24651
 Alpha virt. eigenvalues --   12.40417  15.13392  16.77424  18.21667  22.36352
          Condensed to atoms (all electrons):
               1          2          3          4          5          6
     1  C    4.769229   0.516872  -0.034020  -0.032457  -0.073810   0.375135
     2  C    0.516872   5.056484   0.383335  -0.032661  -0.032457  -0.060107
     3  C   -0.034020   0.383335   4.473678   0.383335  -0.034020  -0.011560
     4  C   -0.032457  -0.032661   0.383335   5.056484   0.516872  -0.060107
     5  C   -0.073810  -0.032457  -0.034020   0.516872   4.769229   0.375135
     6  N    0.375135  -0.060107  -0.011560  -0.060107   0.375135   6.299502
     7  H    0.403640  -0.020888   0.004378  -0.006211   0.005648  -0.037947
     8  H   -0.039669   0.429366  -0.039143   0.014637  -0.001051   0.004569
     9  H   -0.001051   0.014637  -0.039143   0.429366  -0.039669   0.004569
    10  H    0.005648  -0.006211   0.004378  -0.020888   0.403640  -0.037947
    11  O    0.010375  -0.090098   0.563853  -0.090098   0.010375   0.000833
    12  H   -0.032030   0.007421  -0.001101   0.007421  -0.032030   0.412329
               7          8          9         10         11         12
     1  C    0.403640  -0.039669  -0.001051   0.005648   0.010375  -0.032030
     2  C   -0.020888   0.429366   0.014637  -0.006211  -0.090098   0.007421
     3  C    0.004378  -0.039143  -0.039143   0.004378   0.563853  -0.001101
     4  C   -0.006211   0.014637   0.429366  -0.020888  -0.090098   0.007421
     5  C    0.005648  -0.001051  -0.039669   0.403640   0.010375  -0.032030
     6  N   -0.037947   0.004569   0.004569  -0.037947   0.000833   0.412329
     7  H    0.598583  -0.008497   0.000378  -0.001243  -0.000954  -0.008529
     8  H   -0.008497   0.566329  -0.000066   0.000378   0.009491  -0.000483
     9  H    0.000378  -0.000066   0.566329  -0.008497   0.009491  -0.000483
    10  H   -0.001243   0.000378  -0.008497   0.598583  -0.000954  -0.008529
    11  O   -0.000954   0.009491   0.009491  -0.000954   8.026483   0.000091
    12  H   -0.008529  -0.000483  -0.000483  -0.008529   0.000091   0.493120
 Mulliken charges:
               1
     1  C    0.132138
     2  C   -0.165693
     3  C    0.346030
     4  C   -0.165693
     5  C    0.132138
     6  N   -0.264401
     7  H    0.071644
     8  H    0.064138
     9  H    0.064138
    10  H    0.071644
    11  O   -0.448885
    12  H    0.162804
 Sum of Mulliken charges =  -0.00000
 Mulliken charges with hydrogens summed into heavy atoms:
               1
     1  C    0.203782
     2  C   -0.101555
     3  C    0.346030
     4  C   -0.101555
     5  C    0.203782
     6  N   -0.101598
    11  O   -0.448885
 Electronic spatial extent (au):  <R**2>=            641.3546
 Charge=             -0.0000 electrons
 Dipole moment (field-independent basis, Debye):
    X=              0.0013    Y=              6.8416    Z=              0.0000  Tot=              6.8416
 Quadrupole moment (field-independent basis, Debye-Ang):
   XX=            -43.2198   YY=            -42.4148   ZZ=            -34.8553
   XY=             -0.0053   XZ=              0.0000   YZ=              0.0000
 Traceless Quadrupole moment (field-independent basis, Debye-Ang):
   XX=             -3.0565   YY=             -2.2515   ZZ=              5.3080
   XY=             -0.0053   XZ=              0.0000   YZ=              0.0000
 Octapole moment (field-independent basis, Debye-Ang**2):
  XXX=             -0.0037  YYY=             56.7446  ZZZ=             -0.0000  XYY=              0.0021
  XXY=             -2.1662  XXZ=              0.0000  XZZ=              0.0088  YZZ=              3.4256
  YYZ=             -0.0000  XYZ=              0.0000
 Hexadecapole moment (field-independent basis, Debye-Ang**3):
 XXXX=            -47.6593 YYYY=           -495.9162 ZZZZ=           -267.3243 XXXY=             -0.0321
 XXXZ=             -0.0000 YYYX=             -0.0736 YYYZ=             -0.0000 ZZZX=             -0.0000
 ZZZY=             -0.0000 XXYY=            -93.0122 XXZZ=            -64.9863 YYZZ=           -118.7203
 XXYZ=             -0.0000 YYXZ=              0.0000 ZZXY=             -0.0069
 N-N= 2.732804388411D+02 E-N=-1.301770330866D+03  KE= 3.224060920511D+02
 Symmetry A'   KE= 2.365008947619D+02
 Symmetry A"   KE= 8.590519728918D+01
 No NMR shielding tensors so no spin-rotation constants.
 Leave Link  601 at Fri Aug 27 21:11:56 2021, MaxMem= 17179869184 cpu:        64.3
 (Enter /public3/home/sc51754/softwares/g09e01/l701.exe)
 Compute integral first derivatives.
 ... and contract with generalized density number  0.
 Leave Link  701 at Fri Aug 27 21:11:57 2021, MaxMem= 17179869184 cpu:        78.3
 (Enter /public3/home/sc51754/softwares/g09e01/l702.exe)
 L702 exits ... SP integral derivatives will be done elsewhere.
 Leave Link  702 at Fri Aug 27 21:11:57 2021, MaxMem= 17179869184 cpu:         0.2
 (Enter /public3/home/sc51754/softwares/g09e01/l703.exe)
 Compute integral first derivatives, UseDBF=F ICtDFT=           0.
 Integral derivatives from FoFJK, PRISM(SPDF).
 Calling FoFJK, ICntrl=      2527 FMM=F ISym2X=1 I1Cent= 0 IOpClX= 0 NMat=1 NMatS=1 NMatT=0.
 FoFJK:  IHMeth= 1 ICntrl=    2527 DoSepK=F KAlg= 0 I1Cent=   0 FoldK=F
 IRaf=         0 NMat=   1 IRICut=       1 DoRegI=T DoRafI=F ISym2E= 1.
 FoFCou: FMM=F IPFlag=           0 FMFlag=      100000 FMFlg1=         800
         NFxFlg=           0 DoJE=F BraDBF=F KetDBF=F FulRan=T
         wScrn=  0.000000 ICntrl=    2527 IOpCl=  0 I1Cent=           0 NGrid=           0
         NMat0=    1 NMatS0=      1 NMatT0=    0 NMatD0=    1 NMtDS0=    0 NMtDT0=    0
 Petite list used in FoFCou.
 Leave Link  703 at Fri Aug 27 21:11:59 2021, MaxMem= 17179869184 cpu:        91.5
 (Enter /public3/home/sc51754/softwares/g09e01/l716.exe)
 Dipole        = 5.04220974D-04 2.69171060D+00 8.86536813D-16
 ***** Axes restored to original set *****
 -------------------------------------------------------------------
 Center     Atomic                   Forces (Hartrees/Bohr)
 Number     Number              X              Y              Z
 -------------------------------------------------------------------
      1        6          -0.000004604   -0.001884991   -0.001259730
      2        6           0.000000492    0.002026881   -0.003060609
      3        6          -0.000017490   -0.008019935   -0.000000000
      4        6           0.000000492    0.002026881    0.003060609
      5        6          -0.000004604   -0.001884991    0.001259730
      6        7          -0.000001122    0.003640541    0.000000000
      7        1           0.000011519   -0.002145341    0.002758755
      8        1           0.000004449    0.001570297    0.003190241
      9        1           0.000004449    0.001570297   -0.003190241
     10        1           0.000011519   -0.002145341   -0.002758755
     11        8           0.000005290    0.009696074   -0.000000000
     12        1          -0.000010390   -0.004450373   -0.000000000
 -------------------------------------------------------------------
 Cartesian Forces:  Max     0.009696074 RMS     0.002780578
 Leave Link  716 at Fri Aug 27 21:11:59 2021, MaxMem= 17179869184 cpu:         0.4
 (Enter /public3/home/sc51754/softwares/g09e01/l103.exe)

 GradGradGradGradGradGradGradGradGradGradGradGradGradGradGradGradGradGrad
 Berny optimization.
 FormGI is forming the generalized inverse of G from B-inverse, IUseBI=4.
 Internal  Forces:  Max     0.009696076 RMS     0.001963079
 Search for a local minimum.
 Step number   1 out of a maximum of   64
 All quantities printed in internal units (Hartrees-Bohrs-Radians)
 RMS Force = .19631D-02 SwitMx=.10000D-02 MixMth= 1
 Mixed Optimization -- RFO/linear search
 Second derivative matrix not updated -- first step.
 ITU=  0
     Eigenvalues ---    0.01179   0.01465   0.01838   0.01956   0.02032
     Eigenvalues ---    0.02219   0.02234   0.02399   0.02441   0.16000
     Eigenvalues ---    0.16000   0.16000   0.16000   0.16000   0.22000
     Eigenvalues ---    0.22000   0.23391   0.25000   0.34645   0.35229
     Eigenvalues ---    0.35431   0.35431   0.35528   0.35528   0.46397
     Eigenvalues ---    0.47941   0.48075   0.51510   0.53792   0.89549
 RFO step:  Lambda=-3.75995056D-04 EMin= 1.17876314D-02
 Linear search not attempted -- first point.
 Iteration  1 RMS(Cart)=  0.00519733 RMS(Int)=  0.00000278
 Iteration  2 RMS(Cart)=  0.00000299 RMS(Int)=  0.00000028
 Iteration  3 RMS(Cart)=  0.00000000 RMS(Int)=  0.00000028
 ITry= 1 IFail=0 DXMaxC= 1.86D-02 DCOld= 1.00D+10 DXMaxT= 3.00D-01 DXLimC= 3.00D+00 Rises=F
 ClnCor:  largest displacement from symmetrization is 1.06D-10 for atom    10.
 Variable       Old X    -DE/DX   Delta X   Delta X   Delta X     New X
                                 (Linear)    (Quad)   (Total)
    R1        2.56220   0.00442   0.00000   0.00822   0.00822   2.57042
    R2        2.59705   0.00111   0.00000   0.00229   0.00229   2.59934
    R3        2.04981   0.00349   0.00000   0.00984   0.00984   2.05965
    R4        2.77562   0.00095   0.00000   0.00253   0.00253   2.77815
    R5        2.04825   0.00355   0.00000   0.00999   0.00999   2.05824
    R6        2.77562   0.00095   0.00000   0.00253   0.00253   2.77815
    R7        2.33142   0.00970   0.00000   0.01082   0.01082   2.34224
    R8        2.56220   0.00442   0.00000   0.00822   0.00822   2.57042
    R9        2.04825   0.00355   0.00000   0.00999   0.00999   2.05824
   R10        2.59705   0.00111   0.00000   0.00229   0.00229   2.59934
   R11        2.04981   0.00349   0.00000   0.00984   0.00984   2.05965
   R12        1.90386   0.00445   0.00000   0.00958   0.00958   1.91345
    A1        2.11471  -0.00030   0.00000  -0.00123  -0.00123   2.11348
    A2        2.15142   0.00035   0.00000   0.00183   0.00183   2.15325
    A3        2.01706  -0.00004   0.00000  -0.00061  -0.00061   2.01645
    A4        2.12519   0.00043   0.00000   0.00175   0.00175   2.12694
    A5        2.09805  -0.00038   0.00000  -0.00188  -0.00188   2.09618
    A6        2.05994  -0.00006   0.00000   0.00013   0.00013   2.06007
    A7        1.98154  -0.00037   0.00000  -0.00189  -0.00189   1.97965
    A8        2.15082   0.00019   0.00000   0.00094   0.00094   2.15177
    A9        2.15082   0.00019   0.00000   0.00094   0.00094   2.15177
   A10        2.12519   0.00043   0.00000   0.00175   0.00175   2.12694
   A11        2.05994  -0.00006   0.00000   0.00013   0.00013   2.06007
   A12        2.09805  -0.00038   0.00000  -0.00188  -0.00188   2.09618
   A13        2.11471  -0.00030   0.00000  -0.00123  -0.00123   2.11348
   A14        2.15142   0.00035   0.00000   0.00183   0.00183   2.15325
   A15        2.01706  -0.00004   0.00000  -0.00061  -0.00061   2.01645
   A16        2.10503   0.00011   0.00000   0.00084   0.00085   2.10588
   A17        2.08908  -0.00006   0.00000  -0.00042  -0.00042   2.08865
   A18        2.08908  -0.00006   0.00000  -0.00042  -0.00042   2.08865
    D1       -0.00015   0.00000   0.00000   0.00008   0.00008  -0.00007
    D2        3.14133   0.00000   0.00000   0.00018   0.00018   3.14152
    D3       -3.14143  -0.00000   0.00000  -0.00014  -0.00014  -3.14156
    D4        0.00006  -0.00000   0.00000  -0.00003  -0.00003   0.00003
    D5       -0.00035   0.00001   0.00000   0.00035   0.00035   0.00000
    D6        3.14089   0.00000   0.00000   0.00016   0.00016   3.14105
    D7        3.14095   0.00001   0.00000   0.00055   0.00055   3.14150
    D8       -0.00100   0.00001   0.00000   0.00036   0.00036  -0.00064
    D9        0.00059  -0.00001   0.00000  -0.00046  -0.00046   0.00013
   D10       -3.14124   0.00000   0.00000   0.00014   0.00014  -3.14110
   D11       -3.14090  -0.00001   0.00000  -0.00056  -0.00056  -3.14146
   D12        0.00046  -0.00000   0.00000   0.00004   0.00004   0.00050
   D13       -0.00059   0.00001   0.00000   0.00046   0.00046  -0.00013
   D14        3.14090   0.00001   0.00000   0.00056   0.00056   3.14146
   D15        3.14124  -0.00000   0.00000  -0.00014  -0.00014   3.14110
   D16       -0.00046   0.00000   0.00000  -0.00004  -0.00004  -0.00050
   D17        0.00015  -0.00000   0.00000  -0.00008  -0.00008   0.00007
   D18        3.14143   0.00000   0.00000   0.00014   0.00014   3.14156
   D19       -3.14133  -0.00000   0.00000  -0.00018  -0.00018  -3.14152
   D20       -0.00006   0.00000   0.00000   0.00003   0.00003  -0.00003
   D21        0.00035  -0.00001   0.00000  -0.00035  -0.00035  -0.00000
   D22       -3.14089  -0.00000   0.00000  -0.00016  -0.00016  -3.14105
   D23       -3.14095  -0.00001   0.00000  -0.00055  -0.00055  -3.14150
   D24        0.00100  -0.00001   0.00000  -0.00036  -0.00036   0.00064
         Item               Value     Threshold  Converged?
 Maximum Force            0.009696     0.000450     NO 
 RMS     Force            0.001963     0.000300     NO 
 Maximum Displacement     0.018617     0.001800     NO 
 RMS     Displacement     0.005197     0.001200     NO 
 Predicted change in Energy=-1.881463D-04
 Lowest energy point so far.  Saving SCF results.
 GradGradGradGradGradGradGradGradGradGradGradGradGradGradGradGradGradGrad

 Leave Link  103 at Fri Aug 27 21:12:00 2021, MaxMem= 17179869184 cpu:        34.8
 (Enter /public3/home/sc51754/softwares/g09e01/l202.exe)
                          Input orientation:                          
 ---------------------------------------------------------------------
 Center     Atomic      Atomic             Coordinates (Angstroms)
 Number     Number       Type             X           Y           Z
 ---------------------------------------------------------------------
      1          6           0       -0.000213   -1.051012    1.195157
      2          6           0       -0.000212    0.308777    1.228927
      3          6           0       -0.000124    1.115640    0.000000
      4          6           0       -0.000212    0.308777   -1.228927
      5          6           0       -0.000213   -1.051012   -1.195157
      6          7           0       -0.000214   -1.731918   -0.000000
      7          1           0       -0.000305   -1.672961    2.090199
      8          1           0       -0.000282    0.831481    2.184481
      9          1           0       -0.000282    0.831481   -2.184481
     10          1           0       -0.000305   -1.672961   -2.090199
     11          8           0        0.000393    2.355100    0.000000
     12          1           0        0.000265   -2.744470   -0.000000
 ---------------------------------------------------------------------
                    Distance matrix (angstroms):
                    1          2          3          4          5
     1  C    0.000000
     2  C    1.360209   0.000000
     3  C    2.474426   1.470133   0.000000
     4  C    2.779427   2.457855   1.470133   0.000000
     5  C    2.390314   2.779427   2.474426   1.360209   0.000000
     6  N    1.375512   2.382163   2.847558   2.382163   1.375512
     7  H    1.089918   2.160805   3.485001   3.865733   3.343708
     8  H    2.126627   1.089175   2.202886   3.453198   3.868557
     9  H    3.868557   3.453198   2.202886   1.089175   2.126627
    10  H    3.343708   3.865733   3.485001   2.160805   1.089918
    11  O    3.609709   2.386985   1.239459   2.386985   3.609709
    12  H    2.072727   3.291289   3.860110   3.291289   2.072727
                    6          7          8          9         10
     6  N    0.000000
     7  H    2.091030   0.000000
     8  H    3.367933   2.506216   0.000000
     9  H    3.367933   4.954303   4.368963   0.000000
    10  H    2.091030   4.180398   4.954303   2.506216   0.000000
    11  O    4.087018   4.538084   2.663339   2.663339   4.538084
    12  H    1.012552   2.348843   4.190392   4.190392   2.348843
                   11         12
    11  O    0.000000
    12  H    5.099569   0.000000
 Stoichiometry    C5H5NO
 Framework group  CS[SG(CHNO),X(C4H4)]
 Deg. of freedom    17
 Full point group                 CS      NOp   2
 RotChk:  IX=3 Diff= 9.44D-07
 Largest Abelian subgroup         CS      NOp   2
 Largest concise Abelian subgroup CS      NOp   2
                         Standard orientation:                         
 ---------------------------------------------------------------------
 Center     Atomic      Atomic             Coordinates (Angstroms)
 Number     Number       Type             X           Y           Z
 ---------------------------------------------------------------------
      1          6           0        0.000110    1.052551    1.195157
      2          6           0        0.000110   -0.307238    1.228927
      3          6           0        0.000023   -1.114101   -0.000000
      4          6           0        0.000110   -0.307238   -1.228927
      5          6           0        0.000110    1.052551   -1.195157
      6          7           0        0.000110    1.733457    0.000000
      7          1           0        0.000202    1.674501    2.090199
      8          1           0        0.000180   -0.829941    2.184481
      9          1           0        0.000180   -0.829941   -2.184481
     10          1           0        0.000202    1.674501   -2.090199
     11          8           0       -0.000493   -2.353560   -0.000000
     12          1           0       -0.000369    2.746009    0.000000
 ---------------------------------------------------------------------
 Rotational constants (GHZ):      5.6814327      2.6758923      1.8191110
 Leave Link  202 at Fri Aug 27 21:12:00 2021, MaxMem= 17179869184 cpu:         4.6
 (Enter /public3/home/sc51754/softwares/g09e01/l301.exe)
 Basis read from rwf:  (5D, 7F)
 No pseudopotential information found on rwf file.
 There are   183 symmetry adapted cartesian basis functions of A'  symmetry.
 There are   137 symmetry adapted cartesian basis functions of A"  symmetry.
 There are   158 symmetry adapted basis functions of A'  symmetry.
 There are   122 symmetry adapted basis functions of A"  symmetry.
   280 basis functions,   475 primitive gaussians,   320 cartesian basis functions
    25 alpha electrons       25 beta electrons
       nuclear repulsion energy       272.6213196565 Hartrees.
 IExCor=  404 DFT=T Ex=B Corr=P86 ExCW=0 ScaHFX=  0.000000
 ScaDFX=  1.000000  1.000000  1.000000  1.000000 ScalE2=  1.000000  1.000000
 IRadAn=      0 IRanWt=     -1 IRanGd=            0 ICorTp=0 IEmpDi=  4
 NAtoms=   12 NActive=   12 NUniq=    8 SFac= 2.25D+00 NAtFMM=   60 NAOKFM=F Big=F
 Integral buffers will be    131072 words long.
 Raffenetti 2 integral format.
 Two-electron integral symmetry is turned on.
 No density basis found on file   724.
 Leave Link  301 at Fri Aug 27 21:12:00 2021, MaxMem= 17179869184 cpu:         0.8
 (Enter /public3/home/sc51754/softwares/g09e01/l302.exe)
 NPDir=0 NMtPBC=     1 NCelOv=     1 NCel=       1 NClECP=     1 NCelD=      1
         NCelK=      1 NCelE2=     1 NClLst=     1 CellRange=     0.0.
 One-electron integrals computed using PRISM.
 One-electron integral symmetry used in STVInt
 NBasis=   280 RedAO= T EigKep=  1.86D-04  NBF=   158   122
 NBsUse=   280 1.00D-06 EigRej= -1.00D+00 NBFU=   158   122
 Precomputing XC quadrature grid using
 IXCGrd= 4 IRadAn=           0 IRanWt=          -1 IRanGd=           0 AccXCQ= 0.00D+00.
 Generated NRdTot=       0 NPtTot=           0 NUsed=           0 NTot=          32
 NSgBfM=   320   320   320   320   320 MxSgAt=    12 MxSgA2=    12.
 Leave Link  302 at Fri Aug 27 21:12:01 2021, MaxMem= 17179869184 cpu:        41.2
 (Enter /public3/home/sc51754/softwares/g09e01/l303.exe)
 DipDrv:  MaxL=1.
 Leave Link  303 at Fri Aug 27 21:12:01 2021, MaxMem= 17179869184 cpu:        11.2
 (Enter /public3/home/sc51754/softwares/g09e01/l401.exe)
 Initial guess from the checkpoint file:  "4PY_BP86_PC2_OPT_FREQ.chk"
 B after Tr=     0.000000    0.000000   -0.000000
         Rot=    1.000000   -0.000000   -0.000000   -0.000014 Ang=  -0.00 deg.
 Guess basis will be translated and rotated to current coordinates.
 JPrj=2 DoOrth=T DoCkMO=T.
 Initial guess orbital symmetries:
       Occupied  (A') (A') (A") (A') (A') (A") (A') (A') (A') (A')
                 (A") (A") (A') (A') (A") (A') (A") (A') (A') (A")
                 (A') (A') (A") (A') (A")
       Virtual   (A') (A') (A') (A') (A') (A') (A') (A') (A') (A')
                 (A') (A') (A') (A') (A') (A') (A') (A') (A') (A')
                 (A') (A') (A') (A') (A') (A') (A') (A') (A') (A')
                 (A') (A') (A') (A') (A') (A') (A') (A') (A') (A')
                 (A') (A') (A') (A') (A') (A') (A') (A') (A') (A')
                 (A') (A') (A') (A') (A') (A') (A') (A') (A') (A')
                 (A') (A') (A') (A') (A') (A') (A') (A') (A') (A')
                 (A') (A') (A') (A') (A') (A') (A') (A') (A') (A')
                 (A') (A') (A') (A') (A') (A') (A') (A') (A') (A')
                 (A') (A') (A') (A') (A') (A') (A') (A') (A') (A')
                 (A') (A') (A') (A') (A') (A') (A') (A') (A') (A')
                 (A') (A') (A') (A') (A') (A') (A') (A') (A') (A')
                 (A') (A') (A') (A') (A') (A') (A') (A') (A') (A')
                 (A') (A') (A') (A') (A') (A') (A') (A') (A') (A')
                 (A') (A') (A") (A") (A") (A") (A") (A") (A") (A")
                 (A") (A") (A") (A") (A") (A") (A") (A") (A") (A")
                 (A") (A") (A") (A") (A") (A") (A") (A") (A") (A")
                 (A") (A") (A") (A") (A") (A") (A") (A") (A") (A")
                 (A") (A") (A") (A") (A") (A") (A") (A") (A") (A")
                 (A") (A") (A") (A") (A") (A") (A") (A") (A") (A")
                 (A") (A") (A") (A") (A") (A") (A") (A") (A") (A")
                 (A") (A") (A") (A") (A") (A") (A") (A") (A") (A")
                 (A") (A") (A") (A") (A") (A") (A") (A") (A") (A")
                 (A") (A") (A") (A") (A") (A") (A") (A") (A") (A")
                 (A") (A") (A") (A") (A") (A") (A") (A") (A") (A")
                 (A") (A") (A") (A") (A")
 The electronic state of the initial guess is 1-A'.
 Leave Link  401 at Fri Aug 27 21:12:02 2021, MaxMem= 17179869184 cpu:        43.9
 (Enter /public3/home/sc51754/softwares/g09e01/l502.exe)
 Closed shell SCF:
 Using DIIS extrapolation, IDIIS=  1040.
 Integral symmetry usage will be decided dynamically.
 Keep J ints in memory in symmetry-blocked form, NReq=1161351758.
 IVT=      348938 IEndB=      348938 NGot= 17179869184 MDV= 16792355177
 LenX= 16792355177 LenY= 16792252336
 Requested convergence on RMS density matrix=1.00D-08 within 128 cycles.
 Requested convergence on MAX density matrix=1.00D-06.
 Requested convergence on             energy=1.00D-06.
 No special actions if energy rises.
 FoFCou: FMM=F IPFlag=           0 FMFlag=           0 FMFlg1=           0
         NFxFlg=           0 DoJE=F BraDBF=F KetDBF=F FulRan=T
         wScrn=  0.000000 ICntrl=     600 IOpCl=  0 I1Cent=           0 NGrid=           0
         NMat0=    1 NMatS0=  39340 NMatT0=    0 NMatD0=    1 NMtDS0=    0 NMtDT0=    0
 Petite list used in FoFCou.

 Cycle   1  Pass 1  IDiag  1:
 E= -323.645933014140    
 DIIS: error= 3.89D-04 at cycle   1 NSaved=   1.
 NSaved= 1 IEnMin= 1 EnMin= -323.645933014140     IErMin= 1 ErrMin= 3.89D-04
 ErrMax= 3.89D-04  0.00D+00 EMaxC= 1.00D-01 BMatC= 5.57D-05 BMatP= 5.57D-05
 IDIUse=3 WtCom= 9.96D-01 WtEn= 3.89D-03
 Coeff-Com:  0.100D+01
 Coeff-En:   0.100D+01
 Coeff:      0.100D+01
 Gap=     0.505 Goal=   None    Shift=    0.000
 RMSDP=2.95D-05 MaxDP=9.47D-04              OVMax= 2.94D-03

 Cycle   2  Pass 1  IDiag  1:
 E= -323.645974285890     Delta-E=       -0.000041271750 Rises=F Damp=F
 DIIS: error= 1.75D-04 at cycle   2 NSaved=   2.
 NSaved= 2 IEnMin= 2 EnMin= -323.645974285890     IErMin= 2 ErrMin= 1.75D-04
 ErrMax= 1.75D-04  0.00D+00 EMaxC= 1.00D-01 BMatC= 9.31D-06 BMatP= 5.57D-05
 IDIUse=3 WtCom= 9.98D-01 WtEn= 1.75D-03
 Coeff-Com:  0.231D+00 0.769D+00
 Coeff-En:   0.000D+00 0.100D+01
 Coeff:      0.231D+00 0.769D+00
 Gap=     0.125 Goal=   None    Shift=    0.000
 RMSDP=1.74D-05 MaxDP=6.25D-04 DE=-4.13D-05 OVMax= 2.93D-03

 Cycle   3  Pass 1  IDiag  1:
 E= -323.645971985959     Delta-E=        0.000002299931 Rises=F Damp=F
 DIIS: error= 2.22D-04 at cycle   3 NSaved=   3.
 NSaved= 3 IEnMin= 2 EnMin= -323.645974285890     IErMin= 2 ErrMin= 1.75D-04
 ErrMax= 2.22D-04  0.00D+00 EMaxC= 1.00D-01 BMatC= 9.95D-06 BMatP= 9.31D-06
 IDIUse=3 WtCom= 9.98D-01 WtEn= 2.22D-03
 Coeff-Com:  0.893D-01 0.503D+00 0.408D+00
 Coeff-En:   0.000D+00 0.549D+00 0.451D+00
 Coeff:      0.891D-01 0.503D+00 0.408D+00
 Gap=     0.126 Goal=   None    Shift=    0.000
 RMSDP=1.41D-05 MaxDP=5.28D-04 DE= 2.30D-06 OVMax= 2.95D-03

 Cycle   4  Pass 1  IDiag  1:
 E= -323.645979076568     Delta-E=       -0.000007090609 Rises=F Damp=F
 DIIS: error= 1.54D-04 at cycle   4 NSaved=   4.
 NSaved= 4 IEnMin= 4 EnMin= -323.645979076568     IErMin= 4 ErrMin= 1.54D-04
 ErrMax= 1.54D-04  0.00D+00 EMaxC= 1.00D-01 BMatC= 4.55D-06 BMatP= 9.31D-06
 IDIUse=3 WtCom= 9.98D-01 WtEn= 1.54D-03
 EnCoef did     5 forward-backward iterations
 Coeff-Com:  0.257D-01 0.291D+00 0.345D+00 0.337D+00
 Coeff-En:   0.000D+00 0.467D-01 0.316D+00 0.638D+00
 Coeff:      0.257D-01 0.291D+00 0.345D+00 0.338D+00
 Gap=     0.125 Goal=   None    Shift=    0.000
 RMSDP=8.08D-06 MaxDP=3.54D-04 DE=-7.09D-06 OVMax= 1.44D-03

 Cycle   5  Pass 1  IDiag  1:
 E= -323.645983346130     Delta-E=       -0.000004269562 Rises=F Damp=F
 DIIS: error= 3.99D-05 at cycle   5 NSaved=   5.
 NSaved= 5 IEnMin= 5 EnMin= -323.645983346130     IErMin= 5 ErrMin= 3.99D-05
 ErrMax= 3.99D-05  0.00D+00 EMaxC= 1.00D-01 BMatC= 2.63D-07 BMatP= 4.55D-06
 IDIUse=1 WtCom= 1.00D+00 WtEn= 0.00D+00
 Coeff-Com:  0.443D-02 0.115D+00 0.169D+00 0.237D+00 0.475D+00
 Coeff:      0.443D-02 0.115D+00 0.169D+00 0.237D+00 0.475D+00
 Gap=     0.125 Goal=   None    Shift=    0.000
 RMSDP=1.85D-06 MaxDP=9.80D-05 DE=-4.27D-06 OVMax= 2.46D-04

 Cycle   6  Pass 1  IDiag  1:
 E= -323.645983541104     Delta-E=       -0.000000194973 Rises=F Damp=F
 DIIS: error= 1.68D-05 at cycle   6 NSaved=   6.
 NSaved= 6 IEnMin= 6 EnMin= -323.645983541104     IErMin= 6 ErrMin= 1.68D-05
 ErrMax= 1.68D-05  0.00D+00 EMaxC= 1.00D-01 BMatC= 4.32D-08 BMatP= 2.63D-07
 IDIUse=1 WtCom= 1.00D+00 WtEn= 0.00D+00
 Coeff-Com:  0.108D-02 0.588D-01 0.922D-01 0.143D+00 0.352D+00 0.353D+00
 Coeff:      0.108D-02 0.588D-01 0.922D-01 0.143D+00 0.352D+00 0.353D+00
 Gap=     0.125 Goal=   None    Shift=    0.000
 RMSDP=5.89D-07 MaxDP=2.00D-05 DE=-1.95D-07 OVMax= 7.67D-05

 Cycle   7  Pass 1  IDiag  1:
 E= -323.645983578145     Delta-E=       -0.000000037042 Rises=F Damp=F
 DIIS: error= 2.61D-06 at cycle   7 NSaved=   7.
 NSaved= 7 IEnMin= 7 EnMin= -323.645983578145     IErMin= 7 ErrMin= 2.61D-06
 ErrMax= 2.61D-06  0.00D+00 EMaxC= 1.00D-01 BMatC= 1.96D-09 BMatP= 4.32D-08
 IDIUse=1 WtCom= 1.00D+00 WtEn= 0.00D+00
 Coeff-Com: -0.146D-03 0.132D-01 0.248D-01 0.394D-01 0.128D+00 0.202D+00
 Coeff-Com:  0.593D+00
 Coeff:     -0.146D-03 0.132D-01 0.248D-01 0.394D-01 0.128D+00 0.202D+00
 Coeff:      0.593D+00
 Gap=     0.125 Goal=   None    Shift=    0.000
 RMSDP=1.27D-07 MaxDP=4.98D-06 DE=-3.70D-08 OVMax= 2.15D-05

 Cycle   8  Pass 1  IDiag  1:
 E= -323.645983580049     Delta-E=       -0.000000001904 Rises=F Damp=F
 DIIS: error= 7.01D-07 at cycle   8 NSaved=   8.
 NSaved= 8 IEnMin= 8 EnMin= -323.645983580049     IErMin= 8 ErrMin= 7.01D-07
 ErrMax= 7.01D-07  0.00D+00 EMaxC= 1.00D-01 BMatC= 1.29D-10 BMatP= 1.96D-09
 IDIUse=1 WtCom= 1.00D+00 WtEn= 0.00D+00
 Coeff-Com: -0.152D-03 0.614D-02 0.120D-01 0.186D-01 0.663D-01 0.107D+00
 Coeff-Com:  0.350D+00 0.439D+00
 Coeff:     -0.152D-03 0.614D-02 0.120D-01 0.186D-01 0.663D-01 0.107D+00
 Coeff:      0.350D+00 0.439D+00
 Gap=     0.125 Goal=   None    Shift=    0.000
[...]
 Iteration  1 RMS(Cart)=  0.00004761 RMS(Int)=  0.00000001
 Iteration  2 RMS(Cart)=  0.00000000 RMS(Int)=  0.00000000
 ITry= 1 IFail=0 DXMaxC= 2.24D-04 DCOld= 1.00D+10 DXMaxT= 3.00D-01 DXLimC= 3.00D+00 Rises=F
 ClnCor:  largest displacement from symmetrization is 2.67D-09 for atom    10.
 Variable       Old X    -DE/DX   Delta X   Delta X   Delta X     New X
                                 (Linear)    (Quad)   (Total)
    R1        2.57086  -0.00001   0.00000  -0.00002  -0.00002   2.57084
    R2        2.59880   0.00001   0.00000   0.00002   0.00002   2.59882
    R3        2.05940   0.00000   0.00000   0.00001   0.00001   2.05941
    R4        2.77470   0.00002   0.00000   0.00007   0.00007   2.77477
    R5        2.05838  -0.00001   0.00000  -0.00002  -0.00002   2.05836
    R6        2.77470   0.00002   0.00000   0.00007   0.00007   2.77477
    R7        2.34549  -0.00003   0.00000  -0.00005  -0.00005   2.34544
    R8        2.57086  -0.00001   0.00000  -0.00002  -0.00002   2.57084
    R9        2.05838  -0.00001   0.00000  -0.00002  -0.00002   2.05836
   R10        2.59880   0.00001   0.00000   0.00002   0.00002   2.59882
   R11        2.05940   0.00000   0.00000   0.00001   0.00001   2.05941
   R12        1.91376  -0.00001   0.00000  -0.00002  -0.00002   1.91374
    A1        2.11251   0.00000   0.00000   0.00002   0.00002   2.11253
    A2        2.15366  -0.00000   0.00000  -0.00002  -0.00002   2.15364
    A3        2.01702   0.00000   0.00000   0.00000   0.00000   2.01702
    A4        2.12664  -0.00000   0.00000  -0.00002  -0.00002   2.12662
    A5        2.09461   0.00000   0.00000   0.00004   0.00004   2.09465
    A6        2.06193   0.00000   0.00000  -0.00002  -0.00002   2.06191
    A7        1.98144   0.00000   0.00000   0.00000   0.00000   1.98144
    A8        2.15087  -0.00000   0.00000  -0.00000  -0.00000   2.15087
    A9        2.15087  -0.00000   0.00000  -0.00000  -0.00000   2.15087
   A10        2.12664  -0.00000   0.00000  -0.00002  -0.00002   2.12662
   A11        2.06193   0.00000   0.00000  -0.00002  -0.00002   2.06191
   A12        2.09461   0.00000   0.00000   0.00004   0.00004   2.09465
   A13        2.11251   0.00000   0.00000   0.00002   0.00002   2.11253
   A14        2.15366  -0.00000   0.00000  -0.00002  -0.00002   2.15364
   A15        2.01702   0.00000   0.00000   0.00000   0.00000   2.01702
   A16        2.10663  -0.00000   0.00000  -0.00001  -0.00001   2.10662
   A17        2.08828   0.00000   0.00000   0.00000   0.00000   2.08828
   A18        2.08828   0.00000   0.00000   0.00000   0.00000   2.08828
    D1       -0.00009   0.00000   0.00000   0.00009   0.00009  -0.00000
    D2        3.14154   0.00000   0.00000   0.00005   0.00005   3.14159
    D3        3.14154   0.00000   0.00000   0.00005   0.00005  -3.14159
    D4       -0.00001   0.00000   0.00000   0.00001   0.00001  -0.00000
    D5        0.00004   0.00000   0.00000  -0.00004  -0.00004   0.00000
    D6        3.14139   0.00000   0.00000   0.00020   0.00020   3.14159
    D7        3.14159   0.00000   0.00000   0.00000   0.00000  -3.14159
    D8       -0.00024   0.00000   0.00000   0.00023   0.00023  -0.00000
    D9        0.00013  -0.00000   0.00000  -0.00013  -0.00013  -0.00000
   D10        3.14149   0.00000   0.00000   0.00010   0.00010   3.14159
   D11       -3.14150  -0.00000   0.00000  -0.00009  -0.00009  -3.14159
   D12       -0.00014   0.00001   0.00000   0.00014   0.00014   0.00000
   D13       -0.00013   0.00000   0.00000   0.00013   0.00013   0.00000
   D14        3.14150   0.00000   0.00000   0.00009   0.00009   3.14159
   D15       -3.14149  -0.00000   0.00000  -0.00010  -0.00010  -3.14159
   D16        0.00014  -0.00001   0.00000  -0.00014  -0.00014  -0.00000
   D17        0.00009  -0.00000   0.00000  -0.00009  -0.00009   0.00000
   D18       -3.14154  -0.00000   0.00000  -0.00005  -0.00005   3.14159
   D19       -3.14154  -0.00000   0.00000  -0.00005  -0.00005  -3.14159
   D20        0.00001  -0.00000   0.00000  -0.00001  -0.00001   0.00000
   D21       -0.00004  -0.00000   0.00000   0.00004   0.00004  -0.00000
   D22       -3.14139  -0.00000   0.00000  -0.00020  -0.00020  -3.14159
   D23       -3.14159  -0.00000   0.00000  -0.00000  -0.00000   3.14159
   D24        0.00024  -0.00000   0.00000  -0.00023  -0.00023   0.00000
         Item               Value     Threshold  Converged?
 Maximum Force            0.000026     0.000450     YES
 RMS     Force            0.000006     0.000300     YES
 Maximum Displacement     0.000224     0.001800     YES
 RMS     Displacement     0.000048     0.001200     YES
 Predicted change in Energy=-6.154848D-09
 Optimization completed.
    -- Stationary point found.
                           ----------------------------
                           !   Optimized Parameters   !
                           ! (Angstroms and Degrees)  !
 --------------------------                            --------------------------
 ! Name  Definition              Value          Derivative Info.                !
 --------------------------------------------------------------------------------
 ! R1    R(1,2)                  1.3604         -DE/DX =    0.0                 !
 ! R2    R(1,6)                  1.3752         -DE/DX =    0.0                 !
 ! R3    R(1,7)                  1.0898         -DE/DX =    0.0                 !
 ! R4    R(2,3)                  1.4683         -DE/DX =    0.0                 !
 ! R5    R(2,8)                  1.0892         -DE/DX =    0.0                 !
 ! R6    R(3,4)                  1.4683         -DE/DX =    0.0                 !
 ! R7    R(3,11)                 1.2412         -DE/DX =    0.0                 !
 ! R8    R(4,5)                  1.3604         -DE/DX =    0.0                 !
 ! R9    R(4,9)                  1.0892         -DE/DX =    0.0                 !
 ! R10   R(5,6)                  1.3752         -DE/DX =    0.0                 !
 ! R11   R(5,10)                 1.0898         -DE/DX =    0.0                 !
 ! R12   R(6,12)                 1.0127         -DE/DX =    0.0                 !
 ! A1    A(2,1,6)              121.0379         -DE/DX =    0.0                 !
 ! A2    A(2,1,7)              123.3956         -DE/DX =    0.0                 !
 ! A3    A(6,1,7)              115.5665         -DE/DX =    0.0                 !
 ! A4    A(1,2,3)              121.8477         -DE/DX =    0.0                 !
 ! A5    A(1,2,8)              120.0126         -DE/DX =    0.0                 !
 ! A6    A(3,2,8)              118.1397         -DE/DX =    0.0                 !
 ! A7    A(2,3,4)              113.528          -DE/DX =    0.0                 !
 ! A8    A(2,3,11)             123.236          -DE/DX =    0.0                 !
 ! A9    A(4,3,11)             123.236          -DE/DX =    0.0                 !
 ! A10   A(3,4,5)              121.8477         -DE/DX =    0.0                 !
 ! A11   A(3,4,9)              118.1397         -DE/DX =    0.0                 !
 ! A12   A(5,4,9)              120.0126         -DE/DX =    0.0                 !
 ! A13   A(4,5,6)              121.0379         -DE/DX =    0.0                 !
 ! A14   A(4,5,10)             123.3956         -DE/DX =    0.0                 !
 ! A15   A(6,5,10)             115.5665         -DE/DX =    0.0                 !
 ! A16   A(1,6,5)              120.7008         -DE/DX =    0.0                 !
 ! A17   A(1,6,12)             119.6496         -DE/DX =    0.0                 !
 ! A18   A(5,6,12)             119.6496         -DE/DX =    0.0                 !
 ! D1    D(6,1,2,3)             -0.005          -DE/DX =    0.0                 !
 ! D2    D(6,1,2,8)            179.9971         -DE/DX =    0.0                 !
 ! D3    D(7,1,2,3)           -180.0027         -DE/DX =    0.0                 !
 ! D4    D(7,1,2,8)             -0.0006         -DE/DX =    0.0                 !
 ! D5    D(2,1,6,5)              0.0021         -DE/DX =    0.0                 !
 ! D6    D(2,1,6,12)           179.9886         -DE/DX =    0.0                 !
 ! D7    D(7,1,6,5)           -180.0            -DE/DX =    0.0                 !
 ! D8    D(7,1,6,12)            -0.0135         -DE/DX =    0.0                 !
 ! D9    D(1,2,3,4)              0.0073         -DE/DX =    0.0                 !
 ! D10   D(1,2,3,11)           179.9942         -DE/DX =    0.0                 !
 ! D11   D(8,2,3,4)           -179.9948         -DE/DX =    0.0                 !
 ! D12   D(8,2,3,11)            -0.0079         -DE/DX =    0.0                 !
 ! D13   D(2,3,4,5)             -0.0073         -DE/DX =    0.0                 !
 ! D14   D(2,3,4,9)            179.9948         -DE/DX =    0.0                 !
 ! D15   D(11,3,4,5)          -179.9942         -DE/DX =    0.0                 !
 ! D16   D(11,3,4,9)             0.0079         -DE/DX =    0.0                 !
 ! D17   D(3,4,5,6)              0.005          -DE/DX =    0.0                 !
 ! D18   D(3,4,5,10)           180.0027         -DE/DX =    0.0                 !
 ! D19   D(9,4,5,6)           -179.9971         -DE/DX =    0.0                 !
 ! D20   D(9,4,5,10)             0.0006         -DE/DX =    0.0                 !
 ! D21   D(4,5,6,1)             -0.0021         -DE/DX =    0.0                 !
 ! D22   D(4,5,6,12)          -179.9886         -DE/DX =    0.0                 !
 ! D23   D(10,5,6,1)           180.0            -DE/DX =    0.0                 !
 ! D24   D(10,5,6,12)            0.0135         -DE/DX =    0.0                 !
 --------------------------------------------------------------------------------
 GradGradGradGradGradGradGradGradGradGradGradGradGradGradGradGradGradGrad

 Leave Link  103 at Fri Aug 27 21:13:21 2021, MaxMem= 17179869184 cpu:        77.4
 (Enter /public3/home/sc51754/softwares/g09e01/l9999.exe)
 1\1\GINC-T1507\Freq\RBP86\Gen\C5H5N1O1\SC51754\27-Aug-2021\0\\#P Geom=
 AllCheck Guess=TCheck SCRF=Check GenChk RBP86/ChkBas Freq\\4PY_BP86_PC
 2_OPT_FREQ\\0,1\C,-0.0001780173,-1.0509095491,1.1951621041\C,-0.000124
 9317,0.3091313495,1.2281227671\C,-0.0000067916,1.1138944594,0.\C,-0.00
 01249317,0.3091313495,-1.2281227671\C,-0.0001780173,-1.0509095491,-1.1
 951621041\N,-0.0002258607,-1.7312250324,0.\H,-0.0002219631,-1.67261297
 86,2.0902129718\H,-0.0001351959,0.8309512947,2.1842431221\H,-0.0001351
 959,0.8309512947,-2.1842431221\H,-0.0002219631,-1.6726129786,-2.090212
 9718\O,-0.0000612208,2.3550743946,0.\H,-0.000089911,-2.7439440543,0.\\
 Version=EM64L-G09RevE.01\State=1-A'\HF=-323.6459899\RMSD=3.079e-09\RMS
 F=1.367e-05\ZeroPoint=0.0903632\Thermal=0.0959577\Dipole=0.0000002,-2.
 7204477,0.\DipoleDeriv=-0.0812753,0.0000945,-0.0000099,0.0000672,0.617
 2114,0.2177063,0.0000159,0.3476241,0.3602894,-0.1723447,-0.0000199,0.0
 000104,-0.0000301,-0.4809835,0.0597214,0.0000168,0.4495348,-0.1125428,
 0.1930151,0.0000741,0.,0.0000998,1.6825324,0.,0.,0.,0.4783117,-0.17234
 48,-0.0000199,-0.0000104,-0.0000301,-0.4809835,-0.0597214,-0.0000168,-
 0.4495348,-0.1125428,-0.0812752,0.0000945,0.0000099,0.0000672,0.617211
 4,-0.2177063,-0.0000159,-0.3476241,0.3602894,-0.1545206,-0.0002638,0.,
 -0.0000842,-0.8000614,0.,0.,0.,-0.5966512,0.1475372,-0.0000323,0.00000
 38,-0.0000032,0.0030116,0.077081,0.0000081,0.0650555,-0.0112,0.1394918
 ,-0.0000136,0.0000093,-0.0000041,0.0495246,-0.0423924,0.0000023,-0.026
 2832,-0.0267502,0.1394918,-0.0000136,-0.0000093,-0.0000041,0.0495246,0
 .0423924,-0.0000023,0.0262832,-0.0267502,0.1475372,-0.0000323,-0.00000
 38,-0.0000032,0.0030116,-0.077081,-0.0000081,-0.0650555,-0.0112,-0.394
 9501,0.0000147,0.,-0.0000849,-1.5126314,0.,0.,0.,-0.4304046,0.2896375,
 0.0001176,0.,0.0000098,0.2526323,0.,0.,0.,0.1291515\Polar=39.1657664,0
 .0021566,94.7256212,0.,0.,74.1498228\PG=CS [SG(C1H1N1O1),X(C4H4)]\NIma
 g=0\\0.11853555,0.00002667,0.76520739,-0.00000662,-0.05172300,0.648687
 64,-0.04751370,-0.00001564,0.00000314,0.09808245,-0.00001615,-0.419386
 12,0.01227040,0.00002683,0.72921901,0.00000082,-0.01468371,-0.12013518
 ,-0.00001471,0.07913955,0.60052614,-0.00062201,0.00000077,-0.00000060,
 -0.06726387,-0.00000725,0.00000996,0.17903548,-0.00000349,-0.02819219,
 0.02578529,-0.00000618,-0.10388217,0.03426242,-0.00000131,0.80422256,0
 .00000094,0.03715903,0.03655366,0.00001155,0.02064758,-0.19292079,0.,0
 .,0.48798700,-0.00076329,-0.00000101,-0.00000063,0.00661215,0.00000064
 ,0.00000150,-0.06726387,-0.00000618,-0.00001155,0.09808245,0.00000054,
 -0.01096567,-0.01895590,0.00000064,0.02815201,0.00621328,-0.00000725,-
 0.10388217,-0.02064758,0.00002683,0.72921901,0.00000068,0.00256295,-0.
 00277605,-0.00000150,-0.00621328,-0.03055022,-0.00000996,-0.03426242,-
 0.19292079,0.00001471,-0.07913955,0.60052614,0.00532453,-0.00000021,-0
 .00000138,-0.00076329,0.00000054,-0.00000068,-0.00062201,-0.00000349,-
 0.00000094,-0.04751370,-0.00001615,-0.00000082,0.11853555,-0.00000021,
 0.02044841,0.00719291,-0.00000101,-0.01096567,-0.00256295,0.00000077,-
 0.02819219,-0.03715903,-0.00001564,-0.41938612,0.01468371,0.00002667,0
 .76520739,0.00000138,-0.00719291,-0.06706290,0.00000063,0.01895590,-0.
 00277605,0.00000060,-0.02578529,0.03655366,-0.00000314,-0.01227040,-0.
 12013518,0.00000662,0.05172300,0.64868764,-0.04179023,0.00000335,-0.00
 000212,0.00889390,-0.00000319,0.00000060,-0.00900597,0.00000112,0.,0.0
 0889390,-0.00000319,-0.00000060,-0.04179023,0.00000335,0.00000212,0.06
 012127,-0.00000319,-0.16635433,-0.08802585,-0.00000234,-0.03847070,-0.
 03863178,-0.00000058,0.00767523,0.,-0.00000234,-0.03847071,0.03863178,
 -0.00000319,-0.16635433,0.08802585,-0.00005145,0.83056283,-0.00001014,
 -0.05982106,-0.25636349,-0.00000159,-0.04699029,0.00428352,0.,0.,-0.04
 592090,0.00000159,0.04699029,0.00428352,0.00001014,0.05982106,-0.25636
 349,0.,0.,0.64907390,-0.03248304,-0.00000612,0.00001122,0.00617627,-0.
 00000162,0.00000146,0.01042857,-0.00000035,-0.00000094,-0.00095608,0.0
 0000043,-0.00000003,0.00329843,-0.00000021,0.00000078,0.00016484,0.000
 00018,-0.00000295,0.02176394,-0.00000650,-0.14562421,0.13169621,-0.000
 00257,-0.01148238,0.02615594,0.00000002,-0.00208905,-0.00556886,-0.000
 00002,0.00059793,0.00024871,-0.00000028,-0.00225924,-0.00186728,0.0000
 0029,0.01177858,-0.01923381,0.00000848,0.14883341,0.00000902,0.1228273
 4,-0.23202589,-0.00000031,-0.00108934,0.00538333,0.,-0.00164358,0.0008
 3167,0.00000003,0.00033367,0.00087298,-0.00000005,-0.00586149,-0.00109
 691,0.00000103,0.01665814,-0.02596889,-0.00000961,-0.13271619,0.251955
 67,-0.00145982,-0.00000128,-0.00000098,-0.02918280,0.00000030,0.000002
 37,0.00431676,0.00000160,0.00000225,0.00341490,-0.00000051,0.00000049,
 -0.00014838,-0.00000029,-0.00000019,0.00844450,-0.00000028,0.00000069,
 -0.00492531,0.00000018,0.,0.02201961,0.00000022,-0.00958737,-0.0271483
 0,-0.00000052,-0.11296176,-0.11325453,-0.00000030,0.01141282,0.0138687
 7,-0.00000030,-0.00187024,0.00278278,0.,-0.00049394,0.00078333,-0.0000
 0007,-0.00528037,0.00138551,0.00000029,0.00076505,0.00011007,0.0000006
 1,0.11707162,-0.00000010,0.00279048,0.00237097,0.00000383,-0.11652780,
 -0.26541868,-0.00000019,-0.01729503,-0.01731508,0.00000058,0.00366308,
 -0.00367456,0.00000004,0.00154058,-0.00059114,0.00000068,0.00144721,0.
 00329480,-0.00000036,-0.00052404,0.00072729,-0.00000396,0.12451208,0.2
 7748581,-0.00014838,-0.00000029,0.00000019,0.00341490,-0.00000051,-0.0
 0000049,0.00431676,0.00000160,-0.00000225,-0.02918280,0.00000030,-0.00
 000237,-0.00145982,-0.00000128,0.00000098,0.00844450,-0.00000028,-0.00
 000069,-0.00070196,0.00000008,-0.00000002,-0.00102147,0.00000019,-0.00
 000014,0.02201961,0.,-0.00049394,-0.00078333,-0.00000030,-0.00187024,-
 0.00278278,-0.00000030,0.01141282,-0.01386877,-0.00000052,-0.11296176,
 0.11325453,0.00000022,-0.00958737,0.02714830,-0.00000007,-0.00528037,-
 0.00138551,0.00000005,0.00008376,0.00010632,0.00000019,0.00053477,-0.0
 0083507,0.00000061,0.11707162,-0.00000004,-0.00154058,-0.00059114,-0.0
 0000058,-0.00366308,-0.00367456,0.00000019,0.01729503,-0.01731508,-0.0
 0000383,0.11652780,-0.26541868,0.00000010,-0.00279048,0.00237097,-0.00
 000068,-0.00144721,0.00329480,0.00000008,0.00010163,0.00002055,0.00000
 014,0.00083507,-0.00105805,0.00000396,-0.12451208,0.27748581,0.0032984
 3,-0.00000021,-0.00000078,-0.00095608,0.00000043,0.00000003,0.01042857
 ,-0.00000035,0.00000094,0.00617627,-0.00000162,-0.00000146,-0.03248304
 ,-0.00000612,-0.00001122,0.00016484,0.00000018,0.00000295,0.00111214,-
 0.00000006,0.,-0.00070196,0.00000005,-0.00000008,-0.00492531,0.0000002
 9,0.00000036,0.02176394,-0.00000028,-0.00225924,0.00186728,-0.00000002
 ,0.00059793,-0.00024871,0.00000002,-0.00208905,0.00556886,-0.00000257,
 -0.01148238,-0.02615594,-0.00000650,-0.14562421,-0.13169621,0.00000029
 ,0.01177858,0.01923381,-0.00000006,0.00053252,0.00067625,0.00000008,0.
 00008376,-0.00010163,0.00000018,0.00076505,0.00052404,0.00000848,0.148
 83341,0.00000005,0.00586149,-0.00109691,-0.00000003,-0.00033367,0.0008
 7298,0.,0.00164358,0.00083167,0.00000031,0.00108934,0.00538333,-0.0000
 0902,-0.12282734,-0.23202589,-0.00000103,-0.01665814,-0.02596889,0.,-0
 .00067625,-0.00109564,0.00000002,-0.00010632,0.00002055,0.,-0.00011007
 ,0.00072729,0.00000961,0.13271619,0.25195567,0.00376649,-0.00000040,0.
 00000080,0.01949448,-0.00000120,0.00000039,-0.06312712,0.00001727,0.,0
 .01949448,-0.00000120,-0.00000039,0.00376649,-0.00000040,-0.00000080,0
 .00010871,0.00000013,0.,-0.00222132,0.00000009,-0.00000004,-0.00253424
 ,0.00000026,-0.00000034,-0.00253424,0.00000026,0.00000034,-0.00222132,
 0.00000009,0.00000004,0.02638107,0.00000097,0.00931794,0.00646904,0.00
 000045,-0.06148329,0.02981850,0.00001491,-0.56596209,0.,0.00000045,-0.
 06148329,-0.02981850,0.00000097,0.00931794,-0.00646904,-0.00000167,-0.
 00740974,0.,-0.00000062,-0.00229636,0.00035158,-0.00000037,0.00077493,
 0.00091122,-0.00000037,0.00077493,-0.00091122,-0.00000062,-0.00229636,
 -0.00035158,-0.00001479,0.67960603,0.00000017,-0.00392834,-0.01294987,
 -0.00000042,0.04499015,0.01029793,0.,0.,-0.09472203,0.00000042,-0.0449
 9015,0.01029793,-0.00000017,0.00392834,-0.01294987,0.,0.,0.01189465,0.
 00000040,0.00200808,0.00010176,-0.00000030,-0.00244264,0.00388689,0.00
 000030,0.00244264,0.00388689,-0.00000040,-0.00200808,0.00010176,0.,0.,
 0.07946826,-0.00614452,-0.00000564,-0.00000225,0.00300558,0.00000119,-
 0.00000126,-0.00062127,-0.00000025,0.,0.00300558,0.00000119,0.00000126
 ,-0.00614452,-0.00000564,0.00000225,-0.00265004,0.00006316,0.,-0.00165
 649,0.00000029,-0.00000004,0.00177821,-0.00000042,0.00000004,0.0017782
 2,-0.00000042,-0.00000004,-0.00165649,0.00000029,0.00000004,-0.0003734
 8,0.00000070,0.,0.00967921,0.00000143,-0.01211068,0.00135526,0.0000006
 6,0.00253338,-0.00342520,0.00000048,-0.00043451,0.,0.00000066,0.002533
 38,0.00342520,0.00000143,-0.01211068,-0.00135526,0.00005123,-0.4341746
 8,0.,-0.00000045,0.00115998,0.00024725,-0.00000022,-0.00044929,0.00041
 892,-0.00000022,-0.00044929,-0.00041892,-0.00000045,0.00115998,-0.0002
 4725,-0.00000011,0.00113936,0.,-0.00005444,0.45120305,0.00000384,-0.03
 231169,0.00538917,0.,-0.00118612,-0.00588840,0.,0.,-0.00164300,0.,0.00
 118612,-0.00588840,-0.00000384,0.03231169,0.00538917,0.,0.,-0.06553953
 ,-0.00000003,0.00037585,0.00029409,-0.00000052,-0.00132582,0.00027120,
 0.00000052,0.00132582,0.00027120,0.00000003,-0.00037585,0.00029409,0.,
 0.,0.00068570,0.,0.,0.06636470\\0.00000085,-0.00001465,0.00000095,-0.0
 0000981,0.00001390,-0.00002908,0.00003017,-0.00003972,0.,-0.00000981,0
 .00001390,0.00002908,0.00000085,-0.00001465,-0.00000095,-0.00000563,0.
 00002261,0.,0.00000077,-0.00000014,-0.00000384,-0.00000004,0.00000142,
 0.00000686,-0.00000004,0.00000142,-0.00000686,0.00000077,-0.00000014,0
 .00000384,-0.00001080,0.00002553,0.,0.00000272,-0.00000949,0.\\\@


 ONLY THE DAY DAWNS TO WHICH YOU ARE AWAKE.

                                 -- THOREAU
 Job cpu time:       0 days  0 hours 33 minutes 30.4 seconds.
 File lengths (MBytes):  RWF=     65 Int=      0 D2E=      0 Chk=      7 Scr=      1
 Normal termination of Gaussian 09 at Fri Aug 27 21:13:21 2021.
