 Entering Gaussian System, Link 0=g09
 AtFile(1): pc-2.gbs
            -H     0
            S    4   1.00
                  0.754230D+02           0.240650D-02
                  0.113500D+02           0.184870D-01
                  0.259930D+01           0.897420D-01
                  0.735130D+00           0.281110D+00
            S    1   1.00
                  0.231670D+00           0.100000D+01
            S    1   1.00
                  0.741470D-01           0.100000D+01
            P    1   1.00
                  0.160000D+01           0.100000D+01
            P    1   1.00
                  0.450000D+00           0.100000D+01
            D    1   1.00
                  0.125000D+01           0.100000D+01
            ****
            -C     0
            S    7   1.00
                  0.785710D+04           0.568250D-03
                  0.117870D+04           0.439150D-02
                  0.268320D+03           0.225040D-01
                  0.759480D+02           0.866530D-01
                  0.245590D+02           0.244050D+00
                  0.862120D+01           0.441480D+00
                  0.312780D+01           0.353320D+00
            S    7   1.00
                  0.117870D+04          -0.594920D-06
                  0.268320D+03          -0.627480D-04
                  0.759480D+02          -0.757730D-03
                  0.245590D+02          -0.733080D-02
                  0.862120D+01          -0.389320D-01
                  0.312780D+01          -0.889080D-01
                  0.822020D+00           0.216890D+00
            S    1   1.00
                  0.330170D+00           0.100000D+01
            S    1   1.00
                  0.114630D+00           0.100000D+01
            P    4   1.00
                  0.337750D+02           0.602940D-02
                  0.767660D+01           0.432280D-01
                  0.223570D+01           0.163010D+00
                  0.764470D+00           0.365040D+00
            P    1   1.00
                  0.262320D+00           0.100000D+01
            P    1   1.00
                  0.846380D-01           0.100000D+01
            D    1   1.00
                  0.140000D+01           0.100000D+01
            D    1   1.00
                  0.450000D+00           0.100000D+01
            F    1   1.00
                  0.950000D+00           0.100000D+01
            ****
            -N     0
            S    7   1.00
                  0.111010D+05           0.545700D-03
                  0.166530D+04           0.421810D-02
                  0.379080D+03           0.216450D-01
                  0.107300D+03           0.837760D-01
                  0.347470D+02           0.238810D+00
                  0.122490D+02           0.439940D+00
                  0.447430D+01           0.363640D+00
            S    7   1.00
                  0.166530D+04          -0.150060D-05
                  0.379080D+03          -0.587530D-04
                  0.107300D+03          -0.774530D-03
                  0.347470D+02          -0.721610D-02
                  0.122490D+02          -0.393380D-01
                  0.447430D+01          -0.906110D-01
                  0.124040D+01           0.198820D+00
            S    1   1.00
                  0.487430D+00           0.100000D+01
            S    1   1.00
                  0.164840D+00           0.100000D+01
            P    4   1.00
                  0.479340D+02           0.617060D-02
                  0.109990D+02           0.442600D-01
                  0.324720D+01           0.168250D+00
                  0.111140D+01           0.368480D+00
            P    1   1.00
                  0.379880D+00           0.100000D+01
            P    1   1.00
                  0.120680D+00           0.100000D+01
            D    1   1.00
                  0.180000D+01           0.100000D+01
            D    1   1.00
                  0.550000D+00           0.100000D+01
            F    1   1.00
                  0.102000D+01           0.100000D+01
            ****
            -O     0
            S    7   1.00
                  0.147820D+05           0.535190D-03
                  0.221730D+04           0.413750D-02
                  0.504740D+03           0.212450D-01
                  0.142870D+03           0.824530D-01
                  0.463000D+02           0.236710D+00
                  0.163370D+02           0.440390D+00
                  0.598280D+01           0.364650D+00
            S    7   1.00
                  0.221730D+04          -0.192750D-05
                  0.504740D+03          -0.579640D-04
                  0.142870D+03          -0.794940D-03
                  0.463000D+02          -0.731250D-02
                  0.163370D+02          -0.405740D-01
                  0.598280D+01          -0.915940D-01
                  0.167180D+01           0.209400D+00
            S    1   1.00
                  0.646620D+00           0.100000D+01
            S    1   1.00
                  0.216690D+00           0.100000D+01
            P    4   1.00
                  0.604240D+02           0.689490D-02
                  0.139350D+02           0.490050D-01
                  0.415310D+01           0.182550D+00
                  0.141580D+01           0.376330D+00
            P    1   1.00
                  0.475490D+00           0.100000D+01
            P    1   1.00
                  0.145290D+00           0.100000D+01
            D    1   1.00
                  0.220000D+01           0.100000D+01
            D    1   1.00
                  0.650000D+00           0.100000D+01
            F    1   1.00
                  0.110000D+01           0.100000D+01
            ****
 Initial command:
 /public3/home/sc51754/softwares/g09e01/l1.exe "./Gau-56852.inp" -scrdir="./"
 Entering Link 1 = /public3/home/sc51754/softwares/g09e01/l1.exe PID=     56853.
  
 Copyright (c) 1988,1990,1992,1993,1995,1998,2003,2009,2015,
            Gaussian, Inc.  All Rights Reserved.
  
 This is part of the Gaussian(R) 09 program.  It is based on
 the Gaussian(R) 03 system (copyright 2003, Gaussian, Inc.),
 the Gaussian(R) 98 system (copyright 1998, Gaussian, Inc.),
 the Gaussian(R) 94 system (copyright 1995, Gaussian, Inc.),
 the Gaussian 92(TM) system (copyright 1992, Gaussian, Inc.),
 the Gaussian 90(TM) system (copyright 1990, Gaussian, Inc.),
 the Gaussian 88(TM) system (copyright 1988, Gaussian, Inc.),
 the Gaussian 86(TM) system (copyright 1986, Carnegie Mellon
 University), and the Gaussian 82(TM) system (copyright 1983,
 Carnegie Mellon University). Gaussian is a federally registered
 trademark of Gaussian, Inc.
  
 This software contains proprietary and confidential information,
 including trade secrets, belonging to Gaussian, Inc.
  
 This software is provided under written license and may be
 used, copied, transmitted, or stored only in accord with that
 written license.
  
 The following legend is applicable only to US Government
 contracts under FAR:
  
                    RESTRICTED RIGHTS LEGEND
  
 Use, reproduction and disclosure by the US Government is
 subject to restrictions as set forth in subparagraphs (a)
 and (c) of the Commercial Computer Software - Restricted
 Rights clause in FAR 52.227-19.
  
 Gaussian, Inc.
 340 Quinnipiac St., Bldg. 40, Wallingford CT 06492
  
  
 ---------------------------------------------------------------
 Warning -- This program may not be used in any manner that
 competes with the business of Gaussian, Inc. or will provide
 assistance to any competitor of Gaussian, Inc.  The licensee
 of this program is prohibited from giving any competitor of
 Gaussian, Inc. access to this program.  By using this program,
 the user acknowledges that Gaussian, Inc. is engaged in the
 business of creating and licensing software in the field of
 computational chemistry and represents and warrants to the
 licensee that it is not a competitor of Gaussian, Inc. and that
 it will not use this program in any manner prohibited above.
 ---------------------------------------------------------------
  

 Cite this work as:
 Gaussian 09, Revision E.01,
 M. J. Frisch, G. W. Trucks, H. B. Schlegel, G. E. Scuseria, 
 M. A. Robb, J. R. Cheeseman, G. Scalmani, V. Barone, B. Mennucci, 
 G. A. Petersson, H. Nakatsuji, M. Caricato, X. Li, H. P. Hratchian, 
 A. F. Izmaylov, J. Bloino, G. Zheng, J. L. Sonnenberg, M. Hada, 
 M. Ehara, K. Toyota, R. Fukuda, J. Hasegawa, M. Ishida, T. Nakajima, 
 Y. Honda, O. Kitao, H. Nakai, T. Vreven, J. A. Montgomery, Jr., 
 J. E. Peralta, F. Ogliaro, M. Bearpark, J. J. Heyd, E. Brothers, 
 K. N. Kudin, V. N. Staroverov, T. Keith, R. Kobayashi, J. Normand, 
 K. Raghavachari, A. Rendell, J. C. Burant, S. S. Iyengar, J. Tomasi, 
 M. Cossi, N. Rega, J. M. Millam, M. Klene, J. E. Knox, J. B. Cross, 
 V. Bakken, C. Adamo, J. Jaramillo, R. Gomperts, R. E. Stratmann, 
 O. Yazyev, A. J. Austin, R. Cammi, C. Pomelli, J. W. Ochterski, 
 R. L. Martin, K. Morokuma, V. G. Zakrzewski, G. A. Voth, 
 P. Salvador, J. J. Dannenberg, S. Dapprich, A. D. Daniels, 
 O. Farkas, J. B. Foresman, J. V. Ortiz, J. Cioslowski, 
 and D. J. Fox, Gaussian, Inc., Wallingford CT, 2013.
 
 ******************************************
 Gaussian 09:  EM64L-G09RevE.01 30-Nov-2015
                27-Aug-2021 
 ******************************************
 %nprocshared=64
 Will use up to   64 processors via shared memory.
 %mem=128GB
 %chk=4PY_LC-wPBE_PC2_OPT_FREQ.chk
 -----------------------
 #p opt freq LC-wPBE/gen
 -----------------------
 1/14=-1,18=20,19=15,26=3,38=1/1,3;
 2/9=110,12=2,17=6,18=5,40=1/2;
 3/5=7,11=2,16=1,25=1,30=1,71=1,74=-41/1,2,3;
 4//1;
 5/5=2,38=5/2;
 6/7=2,8=2,9=2,10=2,28=1/1;
 7//1,2,3,16;
 1/14=-1,18=20,19=15,26=3/3(2);
 2/9=110/2;
 99//99;
 2/9=110/2;
 3/5=7,6=1,11=2,16=1,25=1,30=1,71=1,74=-41,82=7/1,2,3;
 4/5=5,16=3,69=1/1;
 5/5=2,38=5/2;
 7//1,2,3,16;
 1/14=-1,18=20,19=15,26=3/3(-5);
 2/9=110/2;
 6/7=2,8=2,9=2,10=2,19=2,28=1/1;
 99/9=1/99;
 Leave Link    1 at Fri Aug 27 21:23:31 2021, MaxMem= 17179869184 cpu:        15.1
 (Enter /public3/home/sc51754/softwares/g09e01/l101.exe)
 ------------------------
 4PY_LC-wPBE_PC2_OPT_FREQ
 ------------------------
 Symbolic Z-matrix:
 Charge =  0 Multiplicity = 1
 C                    -0.00018  -1.04887   1.19382 
 C                    -0.00018   0.30655   1.22857 
 C                     0.00022   1.11152   0. 
 C                    -0.00018   0.30655  -1.22857 
 C                    -0.00018  -1.04887  -1.19382 
 N                     0.00002  -1.72968   0. 
 H                    -0.00063  -1.66693   2.08522 
 H                    -0.00059   0.82774   2.17893 
 H                    -0.00059   0.82774  -2.17893 
 H                    -0.00063  -1.66693  -2.08522 
 O                     0.0006    2.34525   0. 
 H                     0.00063  -2.73716   0. 
 
 NAtoms=     12 NQM=       12 NQMF=       0 NMMI=      0 NMMIF=      0
                NMic=       0 NMicF=      0.
                    Isotopes and Nuclear Properties:
 (Nuclear quadrupole moments (NQMom) in fm**2, nuclear magnetic moments (NMagM)
  in nuclear magnetons)

  Atom         1           2           3           4           5           6           7           8           9          10
 IAtWgt=          12          12          12          12          12          14           1           1           1           1
 AtmWgt=  12.0000000  12.0000000  12.0000000  12.0000000  12.0000000  14.0030740   1.0078250   1.0078250   1.0078250   1.0078250
 NucSpn=           0           0           0           0           0           2           1           1           1           1
 AtZEff=   0.0000000   0.0000000   0.0000000   0.0000000   0.0000000   0.0000000   0.0000000   0.0000000   0.0000000   0.0000000
 NQMom=    0.0000000   0.0000000   0.0000000   0.0000000   0.0000000   2.0440000   0.0000000   0.0000000   0.0000000   0.0000000
 NMagM=    0.0000000   0.0000000   0.0000000   0.0000000   0.0000000   0.4037610   2.7928460   2.7928460   2.7928460   2.7928460
 AtZNuc=   6.0000000   6.0000000   6.0000000   6.0000000   6.0000000   7.0000000   1.0000000   1.0000000   1.0000000   1.0000000

  Atom        11          12
 IAtWgt=          16           1
 AtmWgt=  15.9949146   1.0078250
 NucSpn=           0           1
 AtZEff=   0.0000000   0.0000000
 NQMom=    0.0000000   0.0000000
 NMagM=    0.0000000   2.7928460
 AtZNuc=   8.0000000   1.0000000
 Leave Link  101 at Fri Aug 27 21:23:31 2021, MaxMem= 17179869184 cpu:        13.0
 (Enter /public3/home/sc51754/softwares/g09e01/l103.exe)

 GradGradGradGradGradGradGradGradGradGradGradGradGradGradGradGradGradGrad
 Berny optimization.
 Initialization pass.
                           ----------------------------
                           !    Initial Parameters    !
                           ! (Angstroms and Degrees)  !
 --------------------------                            --------------------------
 ! Name  Definition              Value          Derivative Info.                !
 --------------------------------------------------------------------------------
 ! R1    R(1,2)                  1.3559         estimate D2E/DX2                !
 ! R2    R(1,6)                  1.3743         estimate D2E/DX2                !
 ! R3    R(1,7)                  1.0847         estimate D2E/DX2                !
 ! R4    R(2,3)                  1.4688         estimate D2E/DX2                !
 ! R5    R(2,8)                  1.0839         estimate D2E/DX2                !
 ! R6    R(3,4)                  1.4688         estimate D2E/DX2                !
 ! R7    R(3,11)                 1.2337         estimate D2E/DX2                !
 ! R8    R(4,5)                  1.3559         estimate D2E/DX2                !
 ! R9    R(4,9)                  1.0839         estimate D2E/DX2                !
 ! R10   R(5,6)                  1.3743         estimate D2E/DX2                !
 ! R11   R(5,10)                 1.0847         estimate D2E/DX2                !
 ! R12   R(6,12)                 1.0075         estimate D2E/DX2                !
 ! A1    A(2,1,6)              121.1639         estimate D2E/DX2                !
 ! A2    A(2,1,7)              123.267          estimate D2E/DX2                !
 ! A3    A(6,1,7)              115.5691         estimate D2E/DX2                !
 ! A4    A(1,2,3)              121.7645         estimate D2E/DX2                !
 ! A5    A(1,2,8)              120.2096         estimate D2E/DX2                !
 ! A6    A(3,2,8)              118.0259         estimate D2E/DX2                !
 ! A7    A(2,3,4)              113.5338         estimate D2E/DX2                !
 ! A8    A(2,3,11)             123.2331         estimate D2E/DX2                !
 ! A9    A(4,3,11)             123.2331         estimate D2E/DX2                !
 ! A10   A(3,4,5)              121.7645         estimate D2E/DX2                !
 ! A11   A(3,4,9)              118.0259         estimate D2E/DX2                !
 ! A12   A(5,4,9)              120.2096         estimate D2E/DX2                !
 ! A13   A(4,5,6)              121.1639         estimate D2E/DX2                !
 ! A14   A(4,5,10)             123.267          estimate D2E/DX2                !
 ! A15   A(6,5,10)             115.5691         estimate D2E/DX2                !
 ! A16   A(1,6,5)              120.6094         estimate D2E/DX2                !
 ! A17   A(1,6,12)             119.6953         estimate D2E/DX2                !
 ! A18   A(5,6,12)             119.6953         estimate D2E/DX2                !
 ! D1    D(6,1,2,3)             -0.0087         estimate D2E/DX2                !
 ! D2    D(6,1,2,8)            179.9852         estimate D2E/DX2                !
 ! D3    D(7,1,2,3)           -179.9904         estimate D2E/DX2                !
 ! D4    D(7,1,2,8)              0.0035         estimate D2E/DX2                !
 ! D5    D(2,1,6,5)             -0.0199         estimate D2E/DX2                !
 ! D6    D(2,1,6,12)           179.9596         estimate D2E/DX2                !
 ! D7    D(7,1,6,5)            179.9631         estimate D2E/DX2                !
 ! D8    D(7,1,6,12)            -0.0574         estimate D2E/DX2                !
 ! D9    D(1,2,3,4)              0.0339         estimate D2E/DX2                !
 ! D10   D(1,2,3,11)          -179.9797         estimate D2E/DX2                !
 ! D11   D(8,2,3,4)           -179.9602         estimate D2E/DX2                !
 ! D12   D(8,2,3,11)             0.0262         estimate D2E/DX2                !
 ! D13   D(2,3,4,5)             -0.0339         estimate D2E/DX2                !
 ! D14   D(2,3,4,9)            179.9602         estimate D2E/DX2                !
 ! D15   D(11,3,4,5)           179.9797         estimate D2E/DX2                !
 ! D16   D(11,3,4,9)            -0.0262         estimate D2E/DX2                !
 ! D17   D(3,4,5,6)              0.0087         estimate D2E/DX2                !
 ! D18   D(3,4,5,10)           179.9904         estimate D2E/DX2                !
 ! D19   D(9,4,5,6)           -179.9852         estimate D2E/DX2                !
 ! D20   D(9,4,5,10)            -0.0035         estimate D2E/DX2                !
 ! D21   D(4,5,6,1)              0.0199         estimate D2E/DX2                !
 ! D22   D(4,5,6,12)          -179.9596         estimate D2E/DX2                !
 ! D23   D(10,5,6,1)          -179.9631         estimate D2E/DX2                !
 ! D24   D(10,5,6,12)            0.0574         estimate D2E/DX2                !
 --------------------------------------------------------------------------------
 Trust Radius=3.00D-01 FncErr=1.00D-07 GrdErr=1.00D-06
 Number of steps in this run=     64 maximum allowed number of steps=    100.
 GradGradGradGradGradGradGradGradGradGradGradGradGradGradGradGradGradGrad

 Leave Link  103 at Fri Aug 27 21:23:31 2021, MaxMem= 17179869184 cpu:         0.1
 (Enter /public3/home/sc51754/softwares/g09e01/l202.exe)
                          Input orientation:                          
 ---------------------------------------------------------------------
 Center     Atomic      Atomic             Coordinates (Angstroms)
 Number     Number       Type             X           Y           Z
 ---------------------------------------------------------------------
      1          6           0       -0.000184   -1.048866    1.193818
      2          6           0       -0.000184    0.306549    1.228568
      3          6           0        0.000221    1.111516    0.000000
      4          6           0       -0.000184    0.306549   -1.228568
      5          6           0       -0.000184   -1.048866   -1.193818
      6          7           0        0.000018   -1.729678    0.000000
      7          1           0       -0.000630   -1.666925    2.085223
      8          1           0       -0.000587    0.827738    2.178925
      9          1           0       -0.000587    0.827738   -2.178925
     10          1           0       -0.000630   -1.666925   -2.085223
     11          8           0        0.000597    2.345248    0.000000
     12          1           0        0.000630   -2.737158    0.000000
 ---------------------------------------------------------------------
                    Distance matrix (angstroms):
                    1          2          3          4          5
     1  C    0.000000
     2  C    1.355860   0.000000
     3  C    2.468289   1.468792   0.000000
     4  C    2.775807   2.457136   1.468792   0.000000
     5  C    2.387636   2.775807   2.468289   1.355860   0.000000
     6  N    1.374302   2.378150   2.841194   2.378150   1.374302
     7  H    1.084712   2.151385   3.473887   3.856917   3.336781
     8  H    2.119452   1.083890   2.197327   3.447122   3.859668
     9  H    3.859668   3.447122   2.197327   1.083890   2.119452
    10  H    3.336781   3.856917   3.473887   2.151385   1.084712
    11  O    3.597946   2.380268   1.233732   2.380268   3.597946
    12  H    2.067736   3.282306   3.848674   3.282306   2.067736
                    6          7          8          9         10
     6  N    0.000000
     7  H    2.086167   0.000000
     8  H    3.359775   2.496422   0.000000
     9  H    3.359775   4.940273   4.357850   0.000000
    10  H    2.086167   4.170446   4.940273   2.496422   0.000000
    11  O    4.074926   4.521691   2.655288   2.655288   4.521691
    12  H    1.007480   2.343833   4.178062   4.178062   2.343833
                   11         12
    11  O    0.000000
    12  H    5.082406   0.000000
 Stoichiometry    C5H5NO
 Framework group  CS[SG(CHNO),X(C4H4)]
 Deg. of freedom    17
 Full point group                 CS      NOp   2
 Largest Abelian subgroup         CS      NOp   2
 Largest concise Abelian subgroup CS      NOp   2
                         Standard orientation:                         
 ---------------------------------------------------------------------
 Center     Atomic      Atomic             Coordinates (Angstroms)
 Number     Number       Type             X           Y           Z
 ---------------------------------------------------------------------
      1          6           0        0.000184    1.048866    1.193818
      2          6           0        0.000184   -0.306549    1.228568
      3          6           0       -0.000221   -1.111516   -0.000000
      4          6           0        0.000184   -0.306549   -1.228568
      5          6           0        0.000184    1.048866   -1.193818
      6          7           0       -0.000018    1.729678    0.000000
      7          1           0        0.000630    1.666925    2.085223
      8          1           0        0.000587   -0.827738    2.178925
      9          1           0        0.000587   -0.827738   -2.178925
     10          1           0        0.000630    1.666925   -2.085223
     11          8           0       -0.000597   -2.345248   -0.000000
     12          1           0       -0.000630    2.737158    0.000000
 ---------------------------------------------------------------------
 Rotational constants (GHZ):      5.6935111      2.6926956      1.8281082
 Leave Link  202 at Fri Aug 27 21:23:31 2021, MaxMem= 17179869184 cpu:         5.1
 (Enter /public3/home/sc51754/softwares/g09e01/l301.exe)
 General basis read from cards:  (5D, 7F)
 Centers:       7      8      9     10     12
 S 4 1.00
     Exponent=  7.5423000000D+01 Coefficients=  2.4065000000D-03
     Exponent=  1.1350000000D+01 Coefficients=  1.8487000000D-02
     Exponent=  2.5993000000D+00 Coefficients=  8.9742000000D-02
     Exponent=  7.3513000000D-01 Coefficients=  2.8111000000D-01
 S 1 1.00
     Exponent=  2.3167000000D-01 Coefficients=  1.0000000000D+00
 S 1 1.00
     Exponent=  7.4147000000D-02 Coefficients=  1.0000000000D+00
 P 1 1.00
     Exponent=  1.6000000000D+00 Coefficients=  1.0000000000D+00
 P 1 1.00
     Exponent=  4.5000000000D-01 Coefficients=  1.0000000000D+00
 D 1 1.00
     Exponent=  1.2500000000D+00 Coefficients=  1.0000000000D+00
 ****
 Centers:       1      2      3      4      5
 S 7 1.00
     Exponent=  7.8571000000D+03 Coefficients=  5.6825000000D-04
     Exponent=  1.1787000000D+03 Coefficients=  4.3915000000D-03
     Exponent=  2.6832000000D+02 Coefficients=  2.2504000000D-02
     Exponent=  7.5948000000D+01 Coefficients=  8.6653000000D-02
     Exponent=  2.4559000000D+01 Coefficients=  2.4405000000D-01
     Exponent=  8.6212000000D+00 Coefficients=  4.4148000000D-01
     Exponent=  3.1278000000D+00 Coefficients=  3.5332000000D-01
 S 7 1.00
     Exponent=  1.1787000000D+03 Coefficients= -5.9492000000D-07
     Exponent=  2.6832000000D+02 Coefficients= -6.2748000000D-05
     Exponent=  7.5948000000D+01 Coefficients= -7.5773000000D-04
     Exponent=  2.4559000000D+01 Coefficients= -7.3308000000D-03
     Exponent=  8.6212000000D+00 Coefficients= -3.8932000000D-02
     Exponent=  3.1278000000D+00 Coefficients= -8.8908000000D-02
     Exponent=  8.2202000000D-01 Coefficients=  2.1689000000D-01
 S 1 1.00
     Exponent=  3.3017000000D-01 Coefficients=  1.0000000000D+00
 S 1 1.00
     Exponent=  1.1463000000D-01 Coefficients=  1.0000000000D+00
 P 4 1.00
     Exponent=  3.3775000000D+01 Coefficients=  6.0294000000D-03
     Exponent=  7.6766000000D+00 Coefficients=  4.3228000000D-02
     Exponent=  2.2357000000D+00 Coefficients=  1.6301000000D-01
     Exponent=  7.6447000000D-01 Coefficients=  3.6504000000D-01
 P 1 1.00
     Exponent=  2.6232000000D-01 Coefficients=  1.0000000000D+00
 P 1 1.00
     Exponent=  8.4638000000D-02 Coefficients=  1.0000000000D+00
 D 1 1.00
     Exponent=  1.4000000000D+00 Coefficients=  1.0000000000D+00
 D 1 1.00
     Exponent=  4.5000000000D-01 Coefficients=  1.0000000000D+00
 F 1 1.00
     Exponent=  9.5000000000D-01 Coefficients=  1.0000000000D+00
 ****
 Centers:       6
 S 7 1.00
     Exponent=  1.1101000000D+04 Coefficients=  5.4570000000D-04
     Exponent=  1.6653000000D+03 Coefficients=  4.2181000000D-03
     Exponent=  3.7908000000D+02 Coefficients=  2.1645000000D-02
     Exponent=  1.0730000000D+02 Coefficients=  8.3776000000D-02
     Exponent=  3.4747000000D+01 Coefficients=  2.3881000000D-01
     Exponent=  1.2249000000D+01 Coefficients=  4.3994000000D-01
     Exponent=  4.4743000000D+00 Coefficients=  3.6364000000D-01
 S 7 1.00
     Exponent=  1.6653000000D+03 Coefficients= -1.5006000000D-06
     Exponent=  3.7908000000D+02 Coefficients= -5.8753000000D-05
     Exponent=  1.0730000000D+02 Coefficients= -7.7453000000D-04
     Exponent=  3.4747000000D+01 Coefficients= -7.2161000000D-03
     Exponent=  1.2249000000D+01 Coefficients= -3.9338000000D-02
     Exponent=  4.4743000000D+00 Coefficients= -9.0611000000D-02
     Exponent=  1.2404000000D+00 Coefficients=  1.9882000000D-01
 S 1 1.00
     Exponent=  4.8743000000D-01 Coefficients=  1.0000000000D+00
 S 1 1.00
     Exponent=  1.6484000000D-01 Coefficients=  1.0000000000D+00
 P 4 1.00
     Exponent=  4.7934000000D+01 Coefficients=  6.1706000000D-03
     Exponent=  1.0999000000D+01 Coefficients=  4.4260000000D-02
     Exponent=  3.2472000000D+00 Coefficients=  1.6825000000D-01
     Exponent=  1.1114000000D+00 Coefficients=  3.6848000000D-01
 P 1 1.00
     Exponent=  3.7988000000D-01 Coefficients=  1.0000000000D+00
 P 1 1.00
     Exponent=  1.2068000000D-01 Coefficients=  1.0000000000D+00
 D 1 1.00
     Exponent=  1.8000000000D+00 Coefficients=  1.0000000000D+00
 D 1 1.00
     Exponent=  5.5000000000D-01 Coefficients=  1.0000000000D+00
 F 1 1.00
     Exponent=  1.0200000000D+00 Coefficients=  1.0000000000D+00
 ****
 Centers:      11
 S 7 1.00
     Exponent=  1.4782000000D+04 Coefficients=  5.3519000000D-04
     Exponent=  2.2173000000D+03 Coefficients=  4.1375000000D-03
     Exponent=  5.0474000000D+02 Coefficients=  2.1245000000D-02
     Exponent=  1.4287000000D+02 Coefficients=  8.2453000000D-02
     Exponent=  4.6300000000D+01 Coefficients=  2.3671000000D-01
     Exponent=  1.6337000000D+01 Coefficients=  4.4039000000D-01
     Exponent=  5.9828000000D+00 Coefficients=  3.6465000000D-01
 S 7 1.00
     Exponent=  2.2173000000D+03 Coefficients= -1.9275000000D-06
     Exponent=  5.0474000000D+02 Coefficients= -5.7964000000D-05
     Exponent=  1.4287000000D+02 Coefficients= -7.9494000000D-04
     Exponent=  4.6300000000D+01 Coefficients= -7.3125000000D-03
     Exponent=  1.6337000000D+01 Coefficients= -4.0574000000D-02
     Exponent=  5.9828000000D+00 Coefficients= -9.1594000000D-02
     Exponent=  1.6718000000D+00 Coefficients=  2.0940000000D-01
 S 1 1.00
     Exponent=  6.4662000000D-01 Coefficients=  1.0000000000D+00
 S 1 1.00
     Exponent=  2.1669000000D-01 Coefficients=  1.0000000000D+00
 P 4 1.00
     Exponent=  6.0424000000D+01 Coefficients=  6.8949000000D-03
     Exponent=  1.3935000000D+01 Coefficients=  4.9005000000D-02
     Exponent=  4.1531000000D+00 Coefficients=  1.8255000000D-01
     Exponent=  1.4158000000D+00 Coefficients=  3.7633000000D-01
 P 1 1.00
     Exponent=  4.7549000000D-01 Coefficients=  1.0000000000D+00
 P 1 1.00
     Exponent=  1.4529000000D-01 Coefficients=  1.0000000000D+00
 D 1 1.00
     Exponent=  2.2000000000D+00 Coefficients=  1.0000000000D+00
 D 1 1.00
     Exponent=  6.5000000000D-01 Coefficients=  1.0000000000D+00
 F 1 1.00
     Exponent=  1.1000000000D+00 Coefficients=  1.0000000000D+00
 ****
 Ernie: Thresh=  0.10000D-02 Tol=  0.10000D-05 Strict=F.
 Ernie:  7 primitive shells out of 220 were deleted.
 There are   183 symmetry adapted cartesian basis functions of A'  symmetry.
 There are   137 symmetry adapted cartesian basis functions of A"  symmetry.
 There are   158 symmetry adapted basis functions of A'  symmetry.
 There are   122 symmetry adapted basis functions of A"  symmetry.
   280 basis functions,   475 primitive gaussians,   320 cartesian basis functions
    25 alpha electrons       25 beta electrons
       nuclear repulsion energy       273.2804388411 Hartrees.
 IExCor=32609 DFT=T Ex+Corr=LC-wPBE ExCW=0 ScaHFX=  1.000000
 ScaDFX=  1.000000  0.000000  1.000000  1.000000 ScalE2=  1.000000  1.000000
 IRadAn=      0 IRanWt=     -1 IRanGd=            0 ICorTp=0 IEmpDi=  4
  HFx wShort=  0.000000 wLong=  0.400000 cFull=  0.000000 cShort=  0.000000 cLong=  1.000000
  DFx wShort=  0.000000 wLong=  0.400000 cFull=  0.000000 cShort=  0.000000 cLong=  1.000000
 NAtoms=   12 NActive=   12 NUniq=    8 SFac= 2.25D+00 NAtFMM=   60 NAOKFM=F Big=F
 Integral buffers will be    131072 words long.
 Raffenetti 2 integral format.
 Two-electron integral symmetry is turned on.
 Leave Link  301 at Fri Aug 27 21:23:32 2021, MaxMem= 17179869184 cpu:         1.4
 (Enter /public3/home/sc51754/softwares/g09e01/l302.exe)
 NPDir=0 NMtPBC=     1 NCelOv=     1 NCel=       1 NClECP=     1 NCelD=      1
         NCelK=      1 NCelE2=     1 NClLst=     1 CellRange=     0.0.
 One-electron integrals computed using PRISM.
 One-electron integral symmetry used in STVInt
 NBasis=   280 RedAO= T EigKep=  1.83D-04  NBF=   158   122
 NBsUse=   280 1.00D-06 EigRej= -1.00D+00 NBFU=   158   122
 Precomputing XC quadrature grid using
 IXCGrd= 4 IRadAn=           0 IRanWt=          -1 IRanGd=           0 AccXCQ= 0.00D+00.
 Generated NRdTot=       0 NPtTot=           0 NUsed=           0 NTot=          32
 NSgBfM=   320   320   320   320   320 MxSgAt=    12 MxSgA2=    12.
 Leave Link  302 at Fri Aug 27 21:23:32 2021, MaxMem= 17179869184 cpu:        36.4
 (Enter /public3/home/sc51754/softwares/g09e01/l303.exe)
 DipDrv:  MaxL=1.
 Leave Link  303 at Fri Aug 27 21:23:33 2021, MaxMem= 17179869184 cpu:         9.5
 (Enter /public3/home/sc51754/softwares/g09e01/l401.exe)
 ExpMin= 7.41D-02 ExpMax= 1.48D+04 ExpMxC= 5.05D+02 IAcc=2 IRadAn=         4 AccDes= 0.00D+00
 Harris functional with IExCor=32609 and IRadAn=       4 diagonalized for initial guess.
 HarFok:  IExCor=32609 AccDes= 0.00D+00 IRadAn=         4 IDoV= 1 UseB2=F ITyADJ=14
 ICtDFT=  3500011 ScaDFX=  1.000000  1.000000  1.000000  1.000000
 FoFCou: FMM=F IPFlag=           0 FMFlag=      100000 FMFlg1=           0
         NFxFlg=           0 DoJE=T BraDBF=F KetDBF=T FulRan=T
         wScrn=  0.000000 ICntrl=     500 IOpCl=  0 I1Cent=   200000004 NGrid=           0
         NMat0=    1 NMatS0=      1 NMatT0=    0 NMatD0=    1 NMtDS0=    0 NMtDT0=    0
 Petite list used in FoFCou.
 Harris En= -323.420038942135    
 JPrj=0 DoOrth=F DoCkMO=F.
 Initial guess orbital symmetries:
       Occupied  (A') (A') (A") (A') (A") (A') (A') (A') (A') (A')
                 (A") (A") (A') (A') (A") (A') (A') (A") (A') (A')
                 (A") (A') (A") (A") (A')
       Virtual   (A') (A") (A') (A') (A") (A') (A') (A") (A') (A')
                 (A") (A') (A') (A") (A") (A") (A') (A') (A") (A')
                 (A") (A') (A") (A') (A') (A') (A") (A') (A") (A')
                 (A') (A") (A') (A') (A') (A") (A') (A") (A") (A')
                 (A") (A') (A') (A') (A") (A") (A') (A") (A") (A')
                 (A') (A") (A") (A') (A') (A') (A') (A") (A') (A')
                 (A') (A") (A') (A') (A") (A") (A') (A') (A") (A')
                 (A") (A") (A") (A') (A") (A') (A') (A") (A') (A")
                 (A') (A') (A") (A") (A') (A') (A') (A') (A") (A')
                 (A") (A") (A') (A") (A") (A') (A') (A") (A') (A')
                 (A") (A') (A") (A") (A') (A") (A') (A') (A") (A')
                 (A') (A") (A') (A") (A") (A') (A') (A') (A") (A")
                 (A") (A') (A') (A") (A') (A") (A') (A") (A') (A")
                 (A') (A") (A') (A") (A') (A') (A') (A") (A') (A')
                 (A") (A") (A") (A') (A") (A') (A') (A') (A') (A")
                 (A') (A") (A') (A') (A") (A") (A') (A") (A") (A')
                 (A') (A") (A') (A") (A') (A') (A") (A") (A") (A")
                 (A') (A') (A") (A') (A') (A") (A") (A') (A') (A')
                 (A") (A') (A") (A') (A") (A') (A') (A") (A') (A")
                 (A") (A") (A') (A') (A") (A') (A") (A') (A") (A')
                 (A') (A') (A') (A") (A") (A") (A") (A') (A') (A')
                 (A') (A') (A") (A") (A") (A') (A") (A') (A") (A')
                 (A') (A") (A") (A') (A") (A") (A') (A") (A') (A")
                 (A') (A') (A") (A') (A') (A') (A") (A") (A") (A')
                 (A') (A') (A") (A') (A") (A') (A') (A") (A') (A')
                 (A") (A') (A") (A') (A')
 The electronic state of the initial guess is 1-A'.
 Leave Link  401 at Fri Aug 27 21:23:33 2021, MaxMem= 17179869184 cpu:        43.6
 (Enter /public3/home/sc51754/softwares/g09e01/l502.exe)
 Closed shell SCF:
 Using DIIS extrapolation, IDIIS=  1040.
 Integral symmetry usage will be decided dynamically.
 Keep R1 ints in memory in symmetry-blocked form, NReq=2322273034.
 IVT=      348938 IEndB=      348938 NGot= 17179869184 MDV= 16792355177
 LenX= 16792355177 LenY= 16792252336
 Requested convergence on RMS density matrix=1.00D-08 within 128 cycles.
 Requested convergence on MAX density matrix=1.00D-06.
 Requested convergence on             energy=1.00D-06.
 No special actions if energy rises.
 FoFCou: FMM=F IPFlag=           0 FMFlag=           0 FMFlg1=           0
         NFxFlg=           0 DoJE=F BraDBF=F KetDBF=F FulRan=T
         wScrn=  0.000000 ICntrl=     600 IOpCl=  0 I1Cent=           0 NGrid=           0
         NMat0=    1 NMatS0=  39340 NMatT0=    0 NMatD0=    1 NMtDS0=    0 NMtDT0=    0
 Petite list used in FoFCou.
 Integral accuracy reduced to 1.0D-05 until final iterations.

 Cycle   1  Pass 0  IDiag  1:
 E= -323.221017064716    
 DIIS: error= 3.03D-02 at cycle   1 NSaved=   1.
 NSaved= 1 IEnMin= 1 EnMin= -323.221017064716     IErMin= 1 ErrMin= 3.03D-02
 ErrMax= 3.03D-02  0.00D+00 EMaxC= 1.00D-01 BMatC= 2.04D-01 BMatP= 2.04D-01
 IDIUse=3 WtCom= 6.97D-01 WtEn= 3.03D-01
 Coeff-Com:  0.100D+01
 Coeff-En:   0.100D+01
 Coeff:      0.100D+01
 Gap=     0.253 Goal=   None    Shift=    0.000
 GapD=    0.253 DampG=1.000 DampE=0.500 DampFc=0.5000 IDamp=-1.
 Damping current iteration by 5.00D-01
 RMSDP=3.04D-03 MaxDP=1.17D-01              OVMax= 2.90D-01

 Cycle   2  Pass 0  IDiag  1:
 E= -323.310358795355     Delta-E=       -0.089341730640 Rises=F Damp=T
 DIIS: error= 6.56D-03 at cycle   2 NSaved=   2.
 NSaved= 2 IEnMin= 2 EnMin= -323.310358795355     IErMin= 2 ErrMin= 6.56D-03
 ErrMax= 6.56D-03  0.00D+00 EMaxC= 1.00D-01 BMatC= 1.72D-02 BMatP= 2.04D-01
 IDIUse=3 WtCom= 9.34D-01 WtEn= 6.56D-02
 Coeff-Com:  0.149D-01 0.985D+00
 Coeff-En:   0.000D+00 0.100D+01
 Coeff:      0.139D-01 0.986D+00
 Gap=     0.393 Goal=   None    Shift=    0.000
 RMSDP=7.89D-04 MaxDP=2.87D-02 DE=-8.93D-02 OVMax= 1.44D-01

 Cycle   3  Pass 0  IDiag  1:
 E= -323.404801459089     Delta-E=       -0.094442663734 Rises=F Damp=F
 DIIS: error= 6.72D-03 at cycle   3 NSaved=   3.
 NSaved= 3 IEnMin= 3 EnMin= -323.404801459089     IErMin= 2 ErrMin= 6.56D-03
 ErrMax= 6.72D-03  0.00D+00 EMaxC= 1.00D-01 BMatC= 9.13D-03 BMatP= 1.72D-02
 IDIUse=3 WtCom= 9.33D-01 WtEn= 6.72D-02
 Coeff-Com: -0.547D-01 0.433D+00 0.622D+00
 Coeff-En:   0.000D+00 0.000D+00 0.100D+01
 Coeff:     -0.510D-01 0.404D+00 0.647D+00
 Gap=     0.385 Goal=   None    Shift=    0.000
 RMSDP=2.81D-04 MaxDP=1.48D-02 DE=-9.44D-02 OVMax= 4.32D-02

 Cycle   4  Pass 0  IDiag  1:
 E= -323.411855798177     Delta-E=       -0.007054339087 Rises=F Damp=F
 DIIS: error= 2.01D-03 at cycle   4 NSaved=   4.
 NSaved= 4 IEnMin= 4 EnMin= -323.411855798177     IErMin= 4 ErrMin= 2.01D-03
 ErrMax= 2.01D-03  0.00D+00 EMaxC= 1.00D-01 BMatC= 9.05D-04 BMatP= 9.13D-03
 IDIUse=3 WtCom= 9.80D-01 WtEn= 2.01D-02
 Coeff-Com: -0.410D-02 0.262D-01 0.242D+00 0.736D+00
 Coeff-En:   0.000D+00 0.000D+00 0.000D+00 0.100D+01
 Coeff:     -0.402D-02 0.257D-01 0.237D+00 0.741D+00
 Gap=     0.384 Goal=   None    Shift=    0.000
 RMSDP=1.08D-04 MaxDP=3.24D-03 DE=-7.05D-03 OVMax= 9.32D-03

 Cycle   5  Pass 0  IDiag  1:
 E= -323.412662759075     Delta-E=       -0.000806960898 Rises=F Damp=F
 DIIS: error= 5.65D-04 at cycle   5 NSaved=   5.
 NSaved= 5 IEnMin= 5 EnMin= -323.412662759075     IErMin= 5 ErrMin= 5.65D-04
 ErrMax= 5.65D-04  0.00D+00 EMaxC= 1.00D-01 BMatC= 6.16D-05 BMatP= 9.05D-04
 IDIUse=3 WtCom= 9.94D-01 WtEn= 5.65D-03
 Coeff-Com:  0.539D-02-0.336D-01 0.262D-01 0.219D+00 0.783D+00
 Coeff-En:   0.000D+00 0.000D+00 0.000D+00 0.000D+00 0.100D+01
 Coeff:      0.536D-02-0.334D-01 0.260D-01 0.218D+00 0.784D+00
 Gap=     0.385 Goal=   None    Shift=    0.000
 RMSDP=4.41D-05 MaxDP=1.30D-03 DE=-8.07D-04 OVMax= 4.55D-03

 Cycle   6  Pass 0  IDiag  1:
 E= -323.412766305070     Delta-E=       -0.000103545995 Rises=F Damp=F
 DIIS: error= 3.58D-04 at cycle   6 NSaved=   6.
 NSaved= 6 IEnMin= 6 EnMin= -323.412766305070     IErMin= 6 ErrMin= 3.58D-04
 ErrMax= 3.58D-04  0.00D+00 EMaxC= 1.00D-01 BMatC= 1.45D-05 BMatP= 6.16D-05
 IDIUse=3 WtCom= 9.96D-01 WtEn= 3.58D-03
 Coeff-Com:  0.377D-02-0.160D-01-0.295D-01-0.687D-01 0.275D+00 0.836D+00
 Coeff-En:   0.000D+00 0.000D+00 0.000D+00 0.000D+00 0.000D+00 0.100D+01
 Coeff:      0.376D-02-0.160D-01-0.294D-01-0.685D-01 0.274D+00 0.836D+00
 Gap=     0.386 Goal=   None    Shift=    0.000
 RMSDP=2.52D-05 MaxDP=8.02D-04 DE=-1.04D-04 OVMax= 4.42D-03

 Cycle   7  Pass 0  IDiag  1:
 E= -323.412800274456     Delta-E=       -0.000033969386 Rises=F Damp=F
 DIIS: error= 1.23D-04 at cycle   7 NSaved=   7.
 NSaved= 7 IEnMin= 7 EnMin= -323.412800274456     IErMin= 7 ErrMin= 1.23D-04
 ErrMax= 1.23D-04  0.00D+00 EMaxC= 1.00D-01 BMatC= 2.56D-06 BMatP= 1.45D-05
 IDIUse=3 WtCom= 9.99D-01 WtEn= 1.23D-03
 Coeff-Com:  0.244D-04 0.211D-02-0.587D-02-0.555D-01-0.143D+00 0.136D+00
 Coeff-Com:  0.107D+01
 Coeff-En:   0.000D+00 0.000D+00 0.000D+00 0.000D+00 0.000D+00 0.000D+00
 Coeff-En:   0.100D+01
 Coeff:      0.244D-04 0.211D-02-0.587D-02-0.555D-01-0.143D+00 0.136D+00
 Coeff:      0.107D+01
 Gap=     0.386 Goal=   None    Shift=    0.000
 RMSDP=1.54D-05 MaxDP=4.38D-04 DE=-3.40D-05 OVMax= 2.39D-03

 Cycle   8  Pass 0  IDiag  1:
 E= -323.412807552000     Delta-E=       -0.000007277544 Rises=F Damp=F
 DIIS: error= 3.39D-05 at cycle   8 NSaved=   8.
 NSaved= 8 IEnMin= 8 EnMin= -323.412807552000     IErMin= 8 ErrMin= 3.39D-05
 ErrMax= 3.39D-05  0.00D+00 EMaxC= 1.00D-01 BMatC= 2.78D-07 BMatP= 2.56D-06
 IDIUse=1 WtCom= 1.00D+00 WtEn= 0.00D+00
 Coeff-Com: -0.224D-03 0.217D-02 0.288D-02-0.979D-02-0.692D-01-0.383D-01
 Coeff-Com:  0.300D+00 0.812D+00
 Coeff:     -0.224D-03 0.217D-02 0.288D-02-0.979D-02-0.692D-01-0.383D-01
 Coeff:      0.300D+00 0.812D+00
 Gap=     0.386 Goal=   None    Shift=    0.000
 RMSDP=3.55D-06 MaxDP=1.06D-04 DE=-7.28D-06 OVMax= 5.35D-04

 Initial convergence to 1.0D-05 achieved.  Increase integral accuracy.
 Cycle   9  Pass 1  IDiag  1:
 E= -323.412800482070     Delta-E=        0.000007069930 Rises=F Damp=F
 DIIS: error= 2.17D-05 at cycle   1 NSaved=   1.
 NSaved= 1 IEnMin= 1 EnMin= -323.412800482070     IErMin= 1 ErrMin= 2.17D-05
 ErrMax= 2.17D-05  0.00D+00 EMaxC= 1.00D-01 BMatC= 1.14D-07 BMatP= 1.14D-07
 IDIUse=1 WtCom= 1.00D+00 WtEn= 0.00D+00
 Coeff-Com:  0.100D+01
 Coeff:      0.100D+01
 Gap=     0.386 Goal=   None    Shift=    0.000
 RMSDP=3.55D-06 MaxDP=1.06D-04 DE= 7.07D-06 OVMax= 1.40D-04

 Cycle  10  Pass 1  IDiag  1:
 E= -323.412800581453     Delta-E=       -0.000000099384 Rises=F Damp=F
 DIIS: error= 1.01D-05 at cycle   2 NSaved=   2.
 NSaved= 2 IEnMin= 2 EnMin= -323.412800581453     IErMin= 2 ErrMin= 1.01D-05
 ErrMax= 1.01D-05  0.00D+00 EMaxC= 1.00D-01 BMatC= 2.74D-08 BMatP= 1.14D-07
 IDIUse=1 WtCom= 1.00D+00 WtEn= 0.00D+00
 Coeff-Com:  0.259D+00 0.741D+00
 Coeff:      0.259D+00 0.741D+00
 Gap=     0.386 Goal=   None    Shift=    0.000
 RMSDP=5.88D-07 MaxDP=3.56D-05 DE=-9.94D-08 OVMax= 9.10D-05

 Cycle  11  Pass 1  IDiag  1:
 E= -323.412800610869     Delta-E=       -0.000000029416 Rises=F Damp=F
 DIIS: error= 5.87D-06 at cycle   3 NSaved=   3.
 NSaved= 3 IEnMin= 3 EnMin= -323.412800610869     IErMin= 3 ErrMin= 5.87D-06
 ErrMax= 5.87D-06  0.00D+00 EMaxC= 1.00D-01 BMatC= 9.17D-09 BMatP= 2.74D-08
 IDIUse=1 WtCom= 1.00D+00 WtEn= 0.00D+00
 Coeff-Com: -0.542D-01 0.324D+00 0.730D+00
 Coeff:     -0.542D-01 0.324D+00 0.730D+00
 Gap=     0.386 Goal=   None    Shift=    0.000
 RMSDP=3.48D-07 MaxDP=1.34D-05 DE=-2.94D-08 OVMax= 3.72D-05

 Cycle  12  Pass 1  IDiag  1:
 E= -323.412800622109     Delta-E=       -0.000000011240 Rises=F Damp=F
 DIIS: error= 3.65D-06 at cycle   4 NSaved=   4.
 NSaved= 4 IEnMin= 4 EnMin= -323.412800622109     IErMin= 4 ErrMin= 3.65D-06
 ErrMax= 3.65D-06  0.00D+00 EMaxC= 1.00D-01 BMatC= 7.86D-10 BMatP= 9.17D-09
 IDIUse=1 WtCom= 1.00D+00 WtEn= 0.00D+00
 Coeff-Com: -0.414D-01 0.463D-01 0.153D+00 0.842D+00
 Coeff:     -0.414D-01 0.463D-01 0.153D+00 0.842D+00
 Gap=     0.386 Goal=   None    Shift=    0.000
 RMSDP=1.73D-07 MaxDP=7.70D-06 DE=-1.12D-08 OVMax= 3.99D-05

 Cycle  13  Pass 1  IDiag  1:
 E= -323.412800624470     Delta-E=       -0.000000002361 Rises=F Damp=F
 DIIS: error= 1.70D-06 at cycle   5 NSaved=   5.
 NSaved= 5 IEnMin= 5 EnMin= -323.412800624470     IErMin= 5 ErrMin= 1.70D-06
 ErrMax= 1.70D-06  0.00D+00 EMaxC= 1.00D-01 BMatC= 5.10D-10 BMatP= 7.86D-10
 IDIUse=1 WtCom= 1.00D+00 WtEn= 0.00D+00
 Coeff-Com:  0.518D-02-0.104D+00-0.304D+00 0.439D+00 0.963D+00
 Coeff:      0.518D-02-0.104D+00-0.304D+00 0.439D+00 0.963D+00
 Gap=     0.386 Goal=   None    Shift=    0.000
 RMSDP=1.88D-07 MaxDP=4.94D-06 DE=-2.36D-09 OVMax= 2.61D-05

 Cycle  14  Pass 1  IDiag  1:
 E= -323.412800625601     Delta-E=       -0.000000001130 Rises=F Damp=F
 DIIS: error= 3.29D-07 at cycle   6 NSaved=   6.
 NSaved= 6 IEnMin= 6 EnMin= -323.412800625601     IErMin= 6 ErrMin= 3.29D-07
 ErrMax= 3.29D-07  0.00D+00 EMaxC= 1.00D-01 BMatC= 2.70D-11 BMatP= 5.10D-10
 IDIUse=1 WtCom= 1.00D+00 WtEn= 0.00D+00
 Coeff-Com:  0.642D-02-0.398D-01-0.134D+00 0.908D-01 0.350D+00 0.727D+00
 Coeff:      0.642D-02-0.398D-01-0.134D+00 0.908D-01 0.350D+00 0.727D+00
 Gap=     0.386 Goal=   None    Shift=    0.000
 RMSDP=2.92D-08 MaxDP=1.29D-06 DE=-1.13D-09 OVMax= 4.74D-06

 Cycle  15  Pass 1  IDiag  1:
 E= -323.412800625658     Delta-E=       -0.000000000057 Rises=F Damp=F
 DIIS: error= 1.32D-07 at cycle   7 NSaved=   7.
 NSaved= 7 IEnMin= 7 EnMin= -323.412800625658     IErMin= 7 ErrMin= 1.32D-07
 ErrMax= 1.32D-07  0.00D+00 EMaxC= 1.00D-01 BMatC= 2.14D-12 BMatP= 2.70D-11
 IDIUse=1 WtCom= 1.00D+00 WtEn= 0.00D+00
 Coeff-Com:  0.943D-03 0.256D-02 0.759D-03-0.312D-01-0.203D-01 0.188D+00
 Coeff-Com:  0.860D+00
 Coeff:      0.943D-03 0.256D-02 0.759D-03-0.312D-01-0.203D-01 0.188D+00
 Coeff:      0.860D+00
 Gap=     0.386 Goal=   None    Shift=    0.000
 RMSDP=9.95D-09 MaxDP=3.26D-07 DE=-5.71D-11 OVMax= 1.66D-06

 SCF Done:  E(RLC-wPBE) =  -323.412800626     A.U. after   15 cycles
            NFock= 15  Conv=0.10D-07     -V/T= 2.0046
 KE= 3.219465249330D+02 PE=-1.301362633240D+03 EE= 3.827228688406D+02
 Leave Link  502 at Fri Aug 27 21:23:40 2021, MaxMem= 17179869184 cpu:       294.0
 (Enter /public3/home/sc51754/softwares/g09e01/l601.exe)
 Copying SCF densities to generalized density rwf, IOpCl= 0 IROHF=0.

 **********************************************************************

            Population analysis using the SCF density.

 **********************************************************************

 Orbital symmetries:
       Occupied  (A') (A') (A') (A") (A') (A") (A') (A') (A') (A")
                 (A') (A") (A') (A') (A") (A') (A") (A') (A') (A')
                 (A") (A') (A") (A") (A')
       Virtual   (A') (A") (A') (A") (A') (A") (A') (A') (A') (A")
                 (A') (A') (A') (A") (A") (A") (A') (A') (A") (A')
                 (A") (A') (A') (A") (A') (A') (A") (A') (A") (A')
                 (A') (A') (A") (A') (A') (A') (A") (A") (A") (A')
                 (A") (A') (A') (A") (A") (A') (A') (A") (A") (A')
                 (A') (A") (A') (A") (A') (A') (A') (A') (A") (A')
                 (A') (A") (A') (A") (A') (A") (A') (A') (A") (A")
                 (A') (A') (A") (A") (A") (A') (A') (A") (A") (A')
                 (A') (A") (A') (A") (A') (A') (A') (A') (A') (A")
                 (A") (A") (A') (A') (A") (A") (A') (A') (A") (A')
                 (A") (A') (A") (A") (A") (A') (A') (A') (A") (A')
                 (A') (A") (A') (A") (A') (A") (A') (A') (A") (A")
                 (A") (A') (A') (A") (A') (A") (A') (A") (A') (A')
                 (A") (A") (A') (A") (A') (A') (A') (A") (A') (A')
                 (A") (A") (A") (A') (A") (A') (A') (A') (A') (A")
                 (A') (A") (A') (A') (A") (A') (A") (A") (A") (A')
                 (A') (A') (A") (A") (A") (A') (A") (A') (A") (A")
                 (A') (A') (A") (A') (A') (A') (A") (A") (A') (A")
                 (A') (A') (A') (A") (A') (A") (A") (A') (A') (A")
                 (A") (A') (A") (A") (A') (A') (A') (A') (A") (A")
                 (A') (A') (A') (A") (A") (A") (A') (A") (A') (A')
                 (A') (A") (A') (A") (A") (A') (A") (A') (A") (A')
                 (A') (A") (A") (A") (A") (A') (A') (A") (A') (A")
                 (A') (A') (A") (A') (A') (A") (A') (A") (A") (A')
                 (A') (A") (A') (A') (A") (A') (A') (A") (A') (A')
                 (A") (A') (A") (A') (A')
 The electronic state is 1-A'.
 Alpha  occ. eigenvalues --  -18.90897 -14.28113 -10.18119 -10.18044 -10.18042
 Alpha  occ. eigenvalues --  -10.11454 -10.11453  -1.14651  -1.12862  -0.93756
 Alpha  occ. eigenvalues --   -0.93686  -0.79062  -0.76302  -0.72692  -0.63847
 Alpha  occ. eigenvalues --   -0.60906  -0.58416  -0.57709  -0.56842  -0.50692
 Alpha  occ. eigenvalues --   -0.50069  -0.49453  -0.40482  -0.34708  -0.33168
 Alpha virt. eigenvalues --    0.05429   0.05972   0.06051   0.09617   0.11651
 Alpha virt. eigenvalues --    0.13784   0.14459   0.20970   0.21316   0.22967
 Alpha virt. eigenvalues --    0.24198   0.24427   0.25043   0.27157   0.27578
 Alpha virt. eigenvalues --    0.30922   0.31236   0.31695   0.36026   0.36197
 Alpha virt. eigenvalues --    0.36288   0.37603   0.38956   0.39761   0.40744
 Alpha virt. eigenvalues --    0.41798   0.42097   0.44774   0.45304   0.49395
 Alpha virt. eigenvalues --    0.51798   0.54286   0.54690   0.54695   0.58793
 Alpha virt. eigenvalues --    0.58988   0.60204   0.64172   0.65017   0.67116
 Alpha virt. eigenvalues --    0.69383   0.70224   0.74451   0.74822   0.80006
 Alpha virt. eigenvalues --    0.80110   0.82790   0.85358   0.88330   0.90661
 Alpha virt. eigenvalues --    0.91209   0.95428   1.00220   1.00267   1.00935
 Alpha virt. eigenvalues --    1.05820   1.08385   1.09321   1.09413   1.17067
 Alpha virt. eigenvalues --    1.20109   1.21332   1.21604   1.22232   1.24716
 Alpha virt. eigenvalues --    1.27235   1.28549   1.30698   1.30833   1.33082
 Alpha virt. eigenvalues --    1.35000   1.35309   1.36714   1.39492   1.44168
 Alpha virt. eigenvalues --    1.44584   1.44812   1.53023   1.53058   1.55483
 Alpha virt. eigenvalues --    1.55681   1.56815   1.57239   1.57754   1.64904
 Alpha virt. eigenvalues --    1.66688   1.69023   1.73881   1.74880   1.75384
 Alpha virt. eigenvalues --    1.77086   1.78423   1.84750   1.86732   1.87294
 Alpha virt. eigenvalues --    1.88331   1.92567   1.93072   1.93493   1.99979
 Alpha virt. eigenvalues --    2.01227   2.04689   2.06125   2.11336   2.13763
 Alpha virt. eigenvalues --    2.14477   2.20555   2.23358   2.26687   2.29032
 Alpha virt. eigenvalues --    2.30792   2.32992   2.34827   2.37947   2.50787
 Alpha virt. eigenvalues --    2.51090   2.61201   2.61699   2.74155   2.90085
 Alpha virt. eigenvalues --    2.96878   3.01332   3.04963   3.05110   3.22937
 Alpha virt. eigenvalues --    3.26560   3.29739   3.31053   3.33777   3.34446
 Alpha virt. eigenvalues --    3.37045   3.40266   3.42795   3.45387   3.45974
 Alpha virt. eigenvalues --    3.54032   3.56503   3.60955   3.63411   3.65222
 Alpha virt. eigenvalues --    3.68603   3.72886   3.73365   3.75272   3.76304
 Alpha virt. eigenvalues --    3.78077   3.79948   3.86643   3.92355   3.99065
 Alpha virt. eigenvalues --    4.05034   4.05320   4.05983   4.07196   4.08482
 Alpha virt. eigenvalues --    4.11375   4.12724   4.12989   4.18455   4.18659
 Alpha virt. eigenvalues --    4.18745   4.21165   4.21748   4.24791   4.28018
 Alpha virt. eigenvalues --    4.28672   4.29250   4.30396   4.32270   4.32996
 Alpha virt. eigenvalues --    4.33280   4.36508   4.39166   4.39474   4.40595
 Alpha virt. eigenvalues --    4.42288   4.43048   4.43960   4.47805   4.48378
 Alpha virt. eigenvalues --    4.49462   4.51784   4.55197   4.56059   4.57386
 Alpha virt. eigenvalues --    4.57407   4.62383   4.62820   4.64224   4.66245
 Alpha virt. eigenvalues --    4.70754   4.71008   4.71604   4.76018   4.76614
 Alpha virt. eigenvalues --    4.81174   4.86139   4.87215   4.88333   4.88354
 Alpha virt. eigenvalues --    4.97254   5.03475   5.04297   5.04491   5.05957
 Alpha virt. eigenvalues --    5.08937   5.17388   5.19211   5.20709   5.28763
 Alpha virt. eigenvalues --    5.29368   5.34402   5.37616   5.37887   5.39006
 Alpha virt. eigenvalues --    5.43557   5.45036   5.52402   5.53763   5.54287
 Alpha virt. eigenvalues --    5.56950   5.58800   5.66109   5.70033   5.70356
 Alpha virt. eigenvalues --    5.70776   5.77614   5.79662   5.83049   5.87221
 Alpha virt. eigenvalues --    5.88318   5.99843   6.02163   6.04684   6.05417
 Alpha virt. eigenvalues --    6.18298   6.20364   6.26038   6.27416   6.34734
 Alpha virt. eigenvalues --    6.46234   6.59953   6.61425   6.62229   6.93685
 Alpha virt. eigenvalues --    6.99534   7.05328   7.30334   9.53792  12.43983
 Alpha virt. eigenvalues --   12.58983  15.33245  16.96577  18.41098  22.56599
          Condensed to atoms (all electrons):
               1          2          3          4          5          6
     1  C    4.653414   0.568190  -0.038004  -0.020835  -0.079748   0.381635
     2  C    0.568190   5.010937   0.393075  -0.044067  -0.020835  -0.064741
     3  C   -0.038004   0.393075   4.357810   0.393075  -0.038004  -0.008342
     4  C   -0.020835  -0.044067   0.393075   5.010937   0.568190  -0.064741
     5  C   -0.079748  -0.020835  -0.038004   0.568190   4.653414   0.381635
     6  N    0.381635  -0.064741  -0.008342  -0.064741   0.381635   6.306694
     7  H    0.417285  -0.019456   0.002804  -0.004853   0.004791  -0.034666
     8  H   -0.035044   0.440165  -0.026260   0.010333  -0.001382   0.003109
     9  H   -0.001382   0.010333  -0.026260   0.440165  -0.035044   0.003109
    10  H    0.004791  -0.004853   0.002804  -0.019456   0.417285  -0.034666
    11  O    0.007396  -0.083757   0.616869  -0.083757   0.007396   0.000652
    12  H   -0.028200   0.005645  -0.001156   0.005645  -0.028200   0.419180
               7          8          9         10         11         12
     1  C    0.417285  -0.035044  -0.001382   0.004791   0.007396  -0.028200
     2  C   -0.019456   0.440165   0.010333  -0.004853  -0.083757   0.005645
     3  C    0.002804  -0.026260  -0.026260   0.002804   0.616869  -0.001156
     4  C   -0.004853   0.010333   0.440165  -0.019456  -0.083757   0.005645
     5  C    0.004791  -0.001382  -0.035044   0.417285   0.007396  -0.028200
     6  N   -0.034666   0.003109   0.003109  -0.034666   0.000652   0.419180
     7  H    0.572556  -0.003004   0.000128  -0.000401  -0.000432  -0.006720
     8  H   -0.003004   0.549048   0.000251   0.000128   0.003184  -0.000343
     9  H    0.000128   0.000251   0.549048  -0.003004   0.003184  -0.000343
    10  H   -0.000401   0.000128  -0.003004   0.572556  -0.000432  -0.006720
    11  O   -0.000432   0.003184   0.003184  -0.000432   7.995011   0.000070
    12  H   -0.006720  -0.000343  -0.000343  -0.006720   0.000070   0.481787
 Mulliken charges:
               1
     1  C    0.170501
     2  C   -0.190636
     3  C    0.371589
     4  C   -0.190636
     5  C    0.170501
     6  N   -0.288858
     7  H    0.071968
     8  H    0.059816
     9  H    0.059816
    10  H    0.071968
    11  O   -0.465384
    12  H    0.159355
 Sum of Mulliken charges =  -0.00000
 Mulliken charges with hydrogens summed into heavy atoms:
               1
     1  C    0.242469
     2  C   -0.130820
     3  C    0.371589
     4  C   -0.130820
     5  C    0.242469
     6  N   -0.129502
    11  O   -0.465384
 Electronic spatial extent (au):  <R**2>=            640.5547
 Charge=             -0.0000 electrons
 Dipole moment (field-independent basis, Debye):
    X=              0.0013    Y=              7.0975    Z=             -0.0000  Tot=              7.0975
 Quadrupole moment (field-independent basis, Debye-Ang):
   XX=            -43.1031   YY=            -42.2562   ZZ=            -34.0547
   XY=             -0.0055   XZ=              0.0000   YZ=              0.0000
 Traceless Quadrupole moment (field-independent basis, Debye-Ang):
   XX=             -3.2985   YY=             -2.4515   ZZ=              5.7500
   XY=             -0.0055   XZ=              0.0000   YZ=              0.0000
 Octapole moment (field-independent basis, Debye-Ang**2):
  XXX=             -0.0038  YYY=             59.1564  ZZZ=              0.0000  XYY=              0.0024
  XXY=             -2.0753  XXZ=              0.0000  XZZ=              0.0094  YZZ=              4.4728
  YYZ=             -0.0000  XYZ=              0.0000
 Hexadecapole moment (field-independent basis, Debye-Ang**3):
 XXXX=            -46.7428 YYYY=           -494.2451 ZZZZ=           -259.6742 XXXY=             -0.0321
 XXXZ=             -0.0000 YYYX=             -0.0753 YYYZ=             -0.0000 ZZZX=              0.0000
 ZZZY=             -0.0000 XXYY=            -92.4081 XXZZ=            -64.4335 YYZZ=           -114.8495
 XXYZ=             -0.0000 YYXZ=              0.0000 ZZXY=             -0.0066
 N-N= 2.732804388411D+02 E-N=-1.301362637411D+03  KE= 3.219465249330D+02
 Symmetry A'   KE= 2.361328569834D+02
 Symmetry A"   KE= 8.581366794965D+01
 No NMR shielding tensors so no spin-rotation constants.
 Leave Link  601 at Fri Aug 27 21:23:42 2021, MaxMem= 17179869184 cpu:        73.4
 (Enter /public3/home/sc51754/softwares/g09e01/l701.exe)
 Compute integral first derivatives.
 ... and contract with generalized density number  0.
 Leave Link  701 at Fri Aug 27 21:23:43 2021, MaxMem= 17179869184 cpu:        56.8
 (Enter /public3/home/sc51754/softwares/g09e01/l702.exe)
 L702 exits ... SP integral derivatives will be done elsewhere.
 Leave Link  702 at Fri Aug 27 21:23:43 2021, MaxMem= 17179869184 cpu:         0.3
 (Enter /public3/home/sc51754/softwares/g09e01/l703.exe)
 Compute integral first derivatives, UseDBF=F ICtDFT=           0.
 Integral derivatives from FoFJK, PRISM(SPDF).
 Calling FoFJK, ICntrl=      2127 FMM=F ISym2X=1 I1Cent= 0 IOpClX= 0 NMat=1 NMatS=1 NMatT=0.
 FoFJK:  IHMeth= 1 ICntrl=    2127 DoSepK=T KAlg= 0 I1Cent=   0 FoldK=F
 IRaf=         1 NMat=   1 IRICut=       1 DoRegI=T DoRafI=F ISym2E= 1.
 FoFCou: FMM=F IPFlag=           0 FMFlag=      100000 FMFlg1=         800
         NFxFlg=           0 DoJE=F BraDBF=F KetDBF=F FulRan=T
         wScrn=  0.000000 ICntrl=    2527 IOpCl=  0 I1Cent=           0 NGrid=           0
         NMat0=    1 NMatS0=      1 NMatT0=    0 NMatD0=    1 NMtDS0=    0 NMtDT0=    0
 Petite list used in FoFCou.
 Leave Link  703 at Fri Aug 27 21:23:46 2021, MaxMem= 17179869184 cpu:       157.2
 (Enter /public3/home/sc51754/softwares/g09e01/l716.exe)
 Dipole        = 5.17196104D-04 2.79237390D+00 8.86536813D-16
 ***** Axes restored to original set *****
 -------------------------------------------------------------------
 Center     Atomic                   Forces (Hartrees/Bohr)
 Number     Number              X              Y              Z
 -------------------------------------------------------------------
      1        6          -0.000007540    0.011943882   -0.011099966
      2        6           0.000000592   -0.011028361   -0.002957954
      3        6          -0.000013634    0.009891526    0.000000000
      4        6           0.000000592   -0.011028361    0.002957954
      5        6          -0.000007540    0.011943882    0.011099966
      6        7           0.000003994    0.005976163    0.000000000
      7        1           0.000015011    0.001801043   -0.001497565
      8        1           0.000007178   -0.001202558   -0.001926773
      9        1           0.000007178   -0.001202558    0.001926773
     10        1           0.000015011    0.001801043    0.001497565
     11        8          -0.000004531   -0.022917959   -0.000000000
     12        1          -0.000016313    0.004022259   -0.000000000
 -------------------------------------------------------------------
 Cartesian Forces:  Max     0.022917959 RMS     0.006430697
 Leave Link  716 at Fri Aug 27 21:23:46 2021, MaxMem= 17179869184 cpu:         1.1
 (Enter /public3/home/sc51754/softwares/g09e01/l103.exe)

 GradGradGradGradGradGradGradGradGradGradGradGradGradGradGradGradGradGrad
 Berny optimization.
 FormGI is forming the generalized inverse of G from B-inverse, IUseBI=4.
 Internal  Forces:  Max     0.022917959 RMS     0.005665172
 Search for a local minimum.
 Step number   1 out of a maximum of   64
 All quantities printed in internal units (Hartrees-Bohrs-Radians)
 RMS Force = .56652D-02 SwitMx=.10000D-02 MixMth= 1
 Mixed Optimization -- RFO/linear search
 Second derivative matrix not updated -- first step.
 ITU=  0
     Eigenvalues ---    0.01179   0.01465   0.01838   0.01956   0.02032
     Eigenvalues ---    0.02219   0.02234   0.02399   0.02441   0.16000
     Eigenvalues ---    0.16000   0.16000   0.16000   0.16000   0.22000
     Eigenvalues ---    0.22000   0.23391   0.25000   0.34645   0.35229
     Eigenvalues ---    0.35431   0.35431   0.35528   0.35528   0.46397
     Eigenvalues ---    0.47941   0.48075   0.51510   0.53792   0.89549
 RFO step:  Lambda=-3.09061431D-03 EMin= 1.17876314D-02
 Linear search not attempted -- first point.
 Iteration  1 RMS(Cart)=  0.01638329 RMS(Int)=  0.00003080
 Iteration  2 RMS(Cart)=  0.00002812 RMS(Int)=  0.00000306
 Iteration  3 RMS(Cart)=  0.00000000 RMS(Int)=  0.00000306
 ITry= 1 IFail=0 DXMaxC= 6.16D-02 DCOld= 1.00D+10 DXMaxT= 3.00D-01 DXLimC= 3.00D+00 Rises=F
 ClnCor:  largest displacement from symmetrization is 1.59D-11 for atom    10.
 Variable       Old X    -DE/DX   Delta X   Delta X   Delta X     New X
                                 (Linear)    (Quad)   (Total)
    R1        2.56220  -0.01869   0.00000  -0.03456  -0.03456   2.52764
    R2        2.59705  -0.01175   0.00000  -0.02401  -0.02400   2.57305
    R3        2.04981  -0.00226   0.00000  -0.00631  -0.00631   2.04349
    R4        2.77562  -0.00927   0.00000  -0.02462  -0.02462   2.75099
    R5        2.04825  -0.00227   0.00000  -0.00633  -0.00633   2.04193
    R6        2.77562  -0.00927   0.00000  -0.02462  -0.02462   2.75099
    R7        2.33142  -0.02292   0.00000  -0.02550  -0.02550   2.30591
    R8        2.56220  -0.01869   0.00000  -0.03456  -0.03456   2.52764
    R9        2.04825  -0.00227   0.00000  -0.00633  -0.00633   2.04193
   R10        2.59705  -0.01175   0.00000  -0.02401  -0.02400   2.57305
   R11        2.04981  -0.00226   0.00000  -0.00631  -0.00631   2.04349
   R12        1.90386  -0.00402   0.00000  -0.00861  -0.00861   1.89525
    A1        2.11471   0.00171   0.00000   0.00617   0.00617   2.12088
    A2        2.15142  -0.00150   0.00000  -0.00702  -0.00702   2.14439
    A3        2.01706  -0.00021   0.00000   0.00086   0.00085   2.01791
    A4        2.12519  -0.00205   0.00000  -0.00747  -0.00747   2.11772
    A5        2.09805   0.00090   0.00000   0.00293   0.00293   2.10099
    A6        2.05994   0.00116   0.00000   0.00454   0.00454   2.06448
    A7        1.98154   0.00103   0.00000   0.00732   0.00731   1.98885
    A8        2.15082  -0.00052   0.00000  -0.00366  -0.00366   2.14717
    A9        2.15082  -0.00052   0.00000  -0.00366  -0.00366   2.14717
   A10        2.12519  -0.00205   0.00000  -0.00747  -0.00747   2.11772
   A11        2.05994   0.00116   0.00000   0.00454   0.00454   2.06448
   A12        2.09805   0.00090   0.00000   0.00293   0.00293   2.10099
   A13        2.11471   0.00171   0.00000   0.00617   0.00617   2.12088
   A14        2.15142  -0.00150   0.00000  -0.00702  -0.00702   2.14439
   A15        2.01706  -0.00021   0.00000   0.00086   0.00085   2.01791
   A16        2.10503  -0.00035   0.00000  -0.00472  -0.00471   2.10032
   A17        2.08908   0.00017   0.00000   0.00236   0.00235   2.09143
   A18        2.08908   0.00017   0.00000   0.00236   0.00235   2.09143
    D1       -0.00015   0.00000   0.00000   0.00008   0.00008  -0.00007
    D2        3.14133   0.00000   0.00000   0.00019   0.00019   3.14152
    D3       -3.14143  -0.00000   0.00000  -0.00016  -0.00016  -3.14158
    D4        0.00006  -0.00000   0.00000  -0.00005  -0.00005   0.00002
    D5       -0.00035   0.00001   0.00000   0.00027   0.00027  -0.00007
    D6        3.14089   0.00000   0.00000   0.00013   0.00013   3.14102
    D7        3.14095   0.00001   0.00000   0.00049   0.00049   3.14144
    D8       -0.00100   0.00001   0.00000   0.00035   0.00035  -0.00065
    D9        0.00059  -0.00001   0.00000  -0.00039  -0.00039   0.00020
   D10       -3.14124   0.00000   0.00000   0.00014   0.00014  -3.14110
   D11       -3.14090  -0.00001   0.00000  -0.00050  -0.00050  -3.14140
   D12        0.00046  -0.00000   0.00000   0.00003   0.00003   0.00049
   D13       -0.00059   0.00001   0.00000   0.00039   0.00039  -0.00020
   D14        3.14090   0.00001   0.00000   0.00050   0.00050   3.14140
   D15        3.14124  -0.00000   0.00000  -0.00014  -0.00014   3.14110
   D16       -0.00046   0.00000   0.00000  -0.00003  -0.00003  -0.00049
   D17        0.00015  -0.00000   0.00000  -0.00008  -0.00008   0.00007
   D18        3.14143   0.00000   0.00000   0.00016   0.00016   3.14158
   D19       -3.14133  -0.00000   0.00000  -0.00019  -0.00019  -3.14152
   D20       -0.00006   0.00000   0.00000   0.00005   0.00005  -0.00002
   D21        0.00035  -0.00001   0.00000  -0.00027  -0.00027   0.00007
   D22       -3.14089  -0.00000   0.00000  -0.00013  -0.00013  -3.14102
   D23       -3.14095  -0.00001   0.00000  -0.00049  -0.00049  -3.14144
   D24        0.00100  -0.00001   0.00000  -0.00035  -0.00035   0.00065
         Item               Value     Threshold  Converged?
 Maximum Force            0.022918     0.000450     NO 
 RMS     Force            0.005665     0.000300     NO 
 Maximum Displacement     0.061601     0.001800     NO 
 RMS     Displacement     0.016390     0.001200     NO 
 Predicted change in Energy=-1.554773D-03
 Lowest energy point so far.  Saving SCF results.
 GradGradGradGradGradGradGradGradGradGradGradGradGradGradGradGradGradGrad

 Leave Link  103 at Fri Aug 27 21:23:46 2021, MaxMem= 17179869184 cpu:        15.9
 (Enter /public3/home/sc51754/softwares/g09e01/l202.exe)
                          Input orientation:                          
 ---------------------------------------------------------------------
 Center     Atomic      Atomic             Coordinates (Angstroms)
 Number     Number       Type             X           Y           Z
 ---------------------------------------------------------------------
      1          6           0       -0.000222   -1.037946    1.181193
      2          6           0       -0.000220    0.299044    1.220578
      3          6           0       -0.000084    1.092415    0.000000
      4          6           0       -0.000220    0.299044   -1.220578
      5          6           0       -0.000222   -1.037946   -1.181193
      6          7           0       -0.000181   -1.715247   -0.000000
      7          1           0       -0.000331   -1.651248    2.071824
      8          1           0       -0.000316    0.817786    2.168458
      9          1           0       -0.000316    0.817786   -2.168458
     10          1           0       -0.000331   -1.651248   -2.071824
     11          8           0        0.000425    2.312650    0.000000
     12          1           0        0.000313   -2.718170   -0.000000
 ---------------------------------------------------------------------
                    Distance matrix (angstroms):
                    1          2          3          4          5
     1  C    0.000000
     2  C    1.337570   0.000000
     3  C    2.435909   1.455763   0.000000
     4  C    2.748826   2.441155   1.455763   0.000000
     5  C    2.362386   2.748826   2.435909   1.337570   0.000000
     6  N    1.361600   2.355245   2.807662   2.355245   1.361600
     7  H    1.081370   2.127971   3.438042   3.826689   3.310326
     8  H    2.102006   1.080541   2.185779   3.428506   3.829347
     9  H    3.829347   3.428506   2.185779   1.080541   2.102006
    10  H    3.310326   3.826689   3.438042   2.127971   1.081370
    11  O    3.552705   2.354659   1.220236   2.354659   3.552705
    12  H    2.053867   3.254749   3.810585   3.254749   2.053867
                    6          7          8          9         10
     6  N    0.000000
     7  H    2.072812   0.000000
     8  H    3.334436   2.470924   0.000000
     9  H    3.334436   4.906741   4.336915   0.000000
    10  H    2.072812   4.143648   4.906741   2.470924   0.000000
    11  O    4.027897   4.472688   2.633786   2.633786   4.472688
    12  H    1.002923   2.330403   4.147914   4.147914   2.330403
                   11         12
    11  O    0.000000
    12  H    5.030820   0.000000
 Stoichiometry    C5H5NO
 Framework group  CS[SG(CHNO),X(C4H4)]
 Deg. of freedom    17
 Full point group                 CS      NOp   2
 RotChk:  IX=3 Diff= 2.20D-06
 Largest Abelian subgroup         CS      NOp   2
 Largest concise Abelian subgroup CS      NOp   2
                         Standard orientation:                         
 ---------------------------------------------------------------------
 Center     Atomic      Atomic             Coordinates (Angstroms)
 Number     Number       Type             X           Y           Z
 ---------------------------------------------------------------------
      1          6           0        0.000127    1.033887    1.181193
      2          6           0        0.000127   -0.303104    1.220578
      3          6           0       -0.000007   -1.096474   -0.000000
      4          6           0        0.000127   -0.303104   -1.220578
      5          6           0        0.000127    1.033887   -1.181193
      6          7           0        0.000085    1.711188    0.000000
      7          1           0        0.000235    1.647188    2.071824
      8          1           0        0.000224   -0.821845    2.168458
      9          1           0        0.000224   -0.821845   -2.168458
     10          1           0        0.000235    1.647188   -2.071824
     11          8           0       -0.000514   -2.316709   -0.000000
     12          1           0       -0.000410    2.714111    0.000000
 ---------------------------------------------------------------------
 Rotational constants (GHZ):      5.7843050      2.7586945      1.8678604
 Leave Link  202 at Fri Aug 27 21:23:46 2021, MaxMem= 17179869184 cpu:         5.7
 (Enter /public3/home/sc51754/softwares/g09e01/l301.exe)
 Basis read from rwf:  (5D, 7F)
 No pseudopotential information found on rwf file.
 There are   183 symmetry adapted cartesian basis functions of A'  symmetry.
 There are   137 symmetry adapted cartesian basis functions of A"  symmetry.
 There are   158 symmetry adapted basis functions of A'  symmetry.
 There are   122 symmetry adapted basis functions of A"  symmetry.
   280 basis functions,   475 primitive gaussians,   320 cartesian basis functions
    25 alpha electrons       25 beta electrons
       nuclear repulsion energy       276.0219409570 Hartrees.
 IExCor=32609 DFT=T Ex+Corr=LC-wPBE ExCW=0 ScaHFX=  1.000000
 ScaDFX=  1.000000  0.000000  1.000000  1.000000 ScalE2=  1.000000  1.000000
 IRadAn=      0 IRanWt=     -1 IRanGd=            0 ICorTp=0 IEmpDi=  4
  HFx wShort=  0.000000 wLong=  0.400000 cFull=  0.000000 cShort=  0.000000 cLong=  1.000000
  DFx wShort=  0.000000 wLong=  0.400000 cFull=  0.000000 cShort=  0.000000 cLong=  1.000000
 NAtoms=   12 NActive=   12 NUniq=    8 SFac= 2.25D+00 NAtFMM=   60 NAOKFM=F Big=F
 Integral buffers will be    131072 words long.
 Raffenetti 2 integral format.
 Two-electron integral symmetry is turned on.
 No density basis found on file   724.
 Leave Link  301 at Fri Aug 27 21:23:47 2021, MaxMem= 17179869184 cpu:         0.8
 (Enter /public3/home/sc51754/softwares/g09e01/l302.exe)
 NPDir=0 NMtPBC=     1 NCelOv=     1 NCel=       1 NClECP=     1 NCelD=      1
         NCelK=      1 NCelE2=     1 NClLst=     1 CellRange=     0.0.
 One-electron integrals computed using PRISM.
 One-electron integral symmetry used in STVInt
 NBasis=   280 RedAO= T EigKep=  1.71D-04  NBF=   158   122
 NBsUse=   280 1.00D-06 EigRej= -1.00D+00 NBFU=   158   122
 Precomputing XC quadrature grid using
 IXCGrd= 4 IRadAn=           0 IRanWt=          -1 IRanGd=           0 AccXCQ= 0.00D+00.
 Generated NRdTot=       0 NPtTot=           0 NUsed=           0 NTot=          32
 NSgBfM=   320   320   320   320   320 MxSgAt=    12 MxSgA2=    12.
 Leave Link  302 at Fri Aug 27 21:23:47 2021, MaxMem= 17179869184 cpu:        46.1
 (Enter /public3/home/sc51754/softwares/g09e01/l303.exe)
 DipDrv:  MaxL=1.
 Leave Link  303 at Fri Aug 27 21:23:48 2021, MaxMem= 17179869184 cpu:        12.8
 (Enter /public3/home/sc51754/softwares/g09e01/l401.exe)
 Initial guess from the checkpoint file:  "4PY_LC-wPBE_PC2_OPT_FREQ.chk"
 B after Tr=     0.000000    0.000000    0.000000
         Rot=    1.000000   -0.000000    0.000000   -0.000011 Ang=  -0.00 deg.
 Guess basis will be translated and rotated to current coordinates.
 JPrj=2 DoOrth=T DoCkMO=T.
 Initial guess orbital symmetries:
       Occupied  (A') (A') (A') (A") (A') (A") (A') (A') (A') (A")
                 (A') (A") (A') (A') (A") (A') (A") (A') (A') (A')
                 (A") (A') (A") (A") (A')
       Virtual   (A') (A') (A') (A') (A') (A') (A') (A') (A') (A')
                 (A') (A') (A') (A') (A') (A') (A') (A') (A') (A')
                 (A') (A') (A') (A') (A') (A') (A') (A') (A') (A')
                 (A') (A') (A') (A') (A') (A') (A') (A') (A') (A')
                 (A') (A') (A') (A') (A') (A') (A') (A') (A') (A')
                 (A') (A') (A') (A') (A') (A') (A') (A') (A') (A')
                 (A') (A') (A') (A') (A') (A') (A') (A') (A') (A')
                 (A') (A') (A') (A') (A') (A') (A') (A') (A') (A')
                 (A') (A') (A') (A') (A') (A') (A') (A') (A') (A')
                 (A') (A') (A') (A') (A') (A') (A') (A') (A') (A')
                 (A') (A') (A') (A') (A') (A') (A') (A') (A') (A')
                 (A') (A') (A') (A') (A') (A') (A') (A') (A') (A')
                 (A') (A') (A') (A') (A') (A') (A') (A') (A') (A')
                 (A') (A') (A') (A') (A') (A') (A') (A') (A') (A')
                 (A') (A') (A") (A") (A") (A") (A") (A") (A") (A")
                 (A") (A") (A") (A") (A") (A") (A") (A") (A") (A")
                 (A") (A") (A") (A") (A") (A") (A") (A") (A") (A")
                 (A") (A") (A") (A") (A") (A") (A") (A") (A") (A")
                 (A") (A") (A") (A") (A") (A") (A") (A") (A") (A")
                 (A") (A") (A") (A") (A") (A") (A") (A") (A") (A")
                 (A") (A") (A") (A") (A") (A") (A") (A") (A") (A")
                 (A") (A") (A") (A") (A") (A") (A") (A") (A") (A")
                 (A") (A") (A") (A") (A") (A") (A") (A") (A") (A")
                 (A") (A") (A") (A") (A") (A") (A") (A") (A") (A")
                 (A") (A") (A") (A") (A") (A") (A") (A") (A") (A")
                 (A") (A") (A") (A") (A")
 The electronic state of the initial guess is 1-A'.
 Generating alternative initial guess.
 ExpMin= 7.41D-02 ExpMax= 1.48D+04 ExpMxC= 5.05D+02 IAcc=2 IRadAn=         4 AccDes= 0.00D+00
 Harris functional with IExCor=32609 and IRadAn=       4 diagonalized for initial guess.
 HarFok:  IExCor=32609 AccDes= 0.00D+00 IRadAn=         4 IDoV= 1 UseB2=F ITyADJ=14
 ICtDFT=  3500011 ScaDFX=  1.000000  1.000000  1.000000  1.000000
 FoFCou: FMM=F IPFlag=           0 FMFlag=      100000 FMFlg1=           0
         NFxFlg=           0 DoJE=T BraDBF=F KetDBF=T FulRan=T
         wScrn=  0.000000 ICntrl=     500 IOpCl=  0 I1Cent=   200000004 NGrid=           0
         NMat0=    1 NMatS0=      1 NMatT0=    0 NMatD0=    1 NMtDS0=    0 NMtDT0=    0
 Petite list used in FoFCou.
 Harris En= -323.428446633075    
 Leave Link  401 at Fri Aug 27 21:23:49 2021, MaxMem= 17179869184 cpu:        60.4
 (Enter /public3/home/sc51754/softwares/g09e01/l502.exe)
 Closed shell SCF:
 Using DIIS extrapolation, IDIIS=  1040.
 Integral symmetry usage will be decided dynamically.
 Keep R1 ints in memory in symmetry-blocked form, NReq=2322273034.
 IVT=      348938 IEndB=      348938 NGot= 17179869184 MDV= 16792355177
 LenX= 16792355177 LenY= 16792252336
 Requested convergence on RMS density matrix=1.00D-08 within 128 cycles.
 Requested convergence on MAX density matrix=1.00D-06.
 Requested convergence on             energy=1.00D-06.
 No special actions if energy rises.
 FoFCou: FMM=F IPFlag=           0 FMFlag=           0 FMFlg1=           0
         NFxFlg=           0 DoJE=F BraDBF=F KetDBF=F FulRan=T
         wScrn=  0.000000 ICntrl=     600 IOpCl=  0 I1Cent=           0 NGrid=           0
         NMat0=    1 NMatS0=  39340 NMatT0=    0 NMatD0=    1 NMtDS0=    0 NMtDT0=    0
 Petite list used in FoFCou.
 Integral accuracy reduced to 1.0D-05 until final iterations.

 Cycle   1  Pass 0  IDiag  1:
 E= -323.413810560073    
 DIIS: error= 1.07D-03 at cycle   1 NSaved=   1.
 NSaved= 1 IEnMin= 1 EnMin= -323.413810560073     IErMin= 1 ErrMin= 1.07D-03
 ErrMax= 1.07D-03  0.00D+00 EMaxC= 1.00D-01 BMatC= 4.64D-04 BMatP= 4.64D-04
 IDIUse=3 WtCom= 9.89D-01 WtEn= 1.07D-02
 Coeff-Com:  0.100D+01
 Coeff-En:   0.100D+01
 Coeff:      0.100D+01
 Gap=     0.791 Goal=   None    Shift=    0.000
 GapD=    0.791 DampG=2.000 DampE=1.000 DampFc=2.0000 IDamp=-1.
 RMSDP=7.16D-05 MaxDP=1.88D-03              OVMax= 3.80D-03

 Cycle   2  Pass 0  IDiag  1:
 E= -323.414168469347     Delta-E=       -0.000357909273 Rises=F Damp=F
 DIIS: error= 5.06D-04 at cycle   2 NSaved=   2.
 NSaved= 2 IEnMin= 2 EnMin= -323.414168469347     IErMin= 2 ErrMin= 5.06D-04
 ErrMax= 5.06D-04  0.00D+00 EMaxC= 1.00D-01 BMatC= 4.12D-05 BMatP= 4.64D-04
 IDIUse=3 WtCom= 9.95D-01 WtEn= 5.06D-03
 Coeff-Com:  0.121D+00 0.879D+00
 Coeff-En:   0.000D+00 0.100D+01
 Coeff:      0.120D+00 0.880D+00
 Gap=     0.392 Goal=   None    Shift=    0.000
 RMSDP=2.84D-05 MaxDP=1.33D-03 DE=-3.58D-04 OVMax= 1.62D-03

 Cycle   3  Pass 0  IDiag  1:
 E= -323.414198060307     Delta-E=       -0.000029590960 Rises=F Damp=F
 DIIS: error= 2.61D-04 at cycle   3 NSaved=   3.
 NSaved= 3 IEnMin= 3 EnMin= -323.414198060307     IErMin= 3 ErrMin= 2.61D-04
 ErrMax= 2.61D-04  0.00D+00 EMaxC= 1.00D-01 BMatC= 1.40D-05 BMatP= 4.12D-05
 IDIUse=3 WtCom= 9.97D-01 WtEn= 2.61D-03
 Coeff-Com: -0.247D-01 0.339D+00 0.685D+00
 Coeff-En:   0.000D+00 0.319D-01 0.968D+00
 Coeff:     -0.246D-01 0.339D+00 0.686D+00
 Gap=     0.392 Goal=   None    Shift=    0.000
 RMSDP=1.10D-05 MaxDP=5.01D-04 DE=-2.96D-05 OVMax= 1.29D-03

 Cycle   4  Pass 0  IDiag  1:
 E= -323.414209010932     Delta-E=       -0.000010950625 Rises=F Damp=F
 DIIS: error= 1.33D-04 at cycle   4 NSaved=   4.
 NSaved= 4 IEnMin= 4 EnMin= -323.414209010932     IErMin= 4 ErrMin= 1.33D-04
 ErrMax= 1.33D-04  0.00D+00 EMaxC= 1.00D-01 BMatC= 2.58D-06 BMatP= 1.40D-05
 IDIUse=3 WtCom= 9.99D-01 WtEn= 1.33D-03
 Coeff-Com: -0.226D-01 0.978D-01 0.355D+00 0.570D+00
 Coeff-En:   0.000D+00 0.000D+00 0.000D+00 0.100D+01
 Coeff:     -0.226D-01 0.977D-01 0.354D+00 0.571D+00
 Gap=     0.392 Goal=   None    Shift=    0.000
 RMSDP=4.48D-06 MaxDP=2.19D-04 DE=-1.10D-05 OVMax= 3.53D-04

 Initial convergence to 1.0D-05 achieved.  Increase integral accuracy.
 Cycle   5  Pass 1  IDiag  1:
 E= -323.414205168800     Delta-E=        0.000003842132 Rises=F Damp=F
 DIIS: error= 2.48D-05 at cycle   1 NSaved=   1.
 NSaved= 1 IEnMin= 1 EnMin= -323.414205168800     IErMin= 1 ErrMin= 2.48D-05
 ErrMax= 2.48D-05  0.00D+00 EMaxC= 1.00D-01 BMatC= 1.44D-07 BMatP= 1.44D-07
 IDIUse=1 WtCom= 1.00D+00 WtEn= 0.00D+00
 Coeff-Com:  0.100D+01
 Coeff:      0.100D+01
 Gap=     0.392 Goal=   None    Shift=    0.000
 RMSDP=4.48D-06 MaxDP=2.19D-04 DE= 3.84D-06 OVMax= 1.83D-04

 Cycle   6  Pass 1  IDiag  1:
 E= -323.414205252437     Delta-E=       -0.000000083637 Rises=F Damp=F
 DIIS: error= 2.55D-05 at cycle   2 NSaved=   2.
 NSaved= 2 IEnMin= 2 EnMin= -323.414205252437     IErMin= 1 ErrMin= 2.48D-05
 ErrMax= 2.55D-05  0.00D+00 EMaxC= 1.00D-01 BMatC= 8.94D-08 BMatP= 1.44D-07
 IDIUse=1 WtCom= 1.00D+00 WtEn= 0.00D+00
 Coeff-Com:  0.423D+00 0.577D+00
 Coeff:      0.423D+00 0.577D+00
 Gap=     0.392 Goal=   None    Shift=    0.000
 RMSDP=9.54D-07 MaxDP=4.71D-05 DE=-8.36D-08 OVMax= 7.39D-05

 Cycle   7  Pass 1  IDiag  1:
 E= -323.414205305975     Delta-E=       -0.000000053538 Rises=F Damp=F
 DIIS: error= 8.44D-06 at cycle   3 NSaved=   3.
 NSaved= 3 IEnMin= 3 EnMin= -323.414205305975     IErMin= 3 ErrMin= 8.44D-06
 ErrMax= 8.44D-06  0.00D+00 EMaxC= 1.00D-01 BMatC= 9.68D-09 BMatP= 8.94D-08
 IDIUse=1 WtCom= 1.00D+00 WtEn= 0.00D+00
 Coeff-Com: -0.165D-01 0.222D+00 0.794D+00
 Coeff:     -0.165D-01 0.222D+00 0.794D+00
 Gap=     0.392 Goal=   None    Shift=    0.000
 RMSDP=3.39D-07 MaxDP=1.97D-05 DE=-5.35D-08 OVMax= 5.32D-05

 Cycle   8  Pass 1  IDiag  1:
 E= -323.414205315488     Delta-E=       -0.000000009513 Rises=F Damp=F
 DIIS: error= 2.41D-06 at cycle   4 NSaved=   4.
 NSaved= 4 IEnMin= 4 EnMin= -323.414205315488     IErMin= 4 ErrMin= 2.41D-06
 ErrMax= 2.41D-06  0.00D+00 EMaxC= 1.00D-01 BMatC= 1.19D-09 BMatP= 9.68D-09
 IDIUse=1 WtCom= 1.00D+00 WtEn= 0.00D+00
 Coeff-Com: -0.380D-01 0.177D-01 0.305D+00 0.715D+00
 Coeff:     -0.380D-01 0.177D-01 0.305D+00 0.715D+00
 Gap=     0.392 Goal=   None    Shift=    0.000
 RMSDP=1.38D-07 MaxDP=4.23D-06 DE=-9.51D-09 OVMax= 1.28D-05

 Cycle   9  Pass 1  IDiag  1:
 E= -323.414205316958     Delta-E=       -0.000000001470 Rises=F Damp=F
 DIIS: error= 9.74D-07 at cycle   5 NSaved=   5.
 NSaved= 5 IEnMin= 5 EnMin= -323.414205316958     IErMin= 5 ErrMin= 9.74D-07
 ErrMax= 9.74D-07  0.00D+00 EMaxC= 1.00D-01 BMatC= 9.87D-11 BMatP= 1.19D-09
 IDIUse=1 WtCom= 1.00D+00 WtEn= 0.00D+00
 Coeff-Com: -0.279D-02-0.430D-01-0.708D-01 0.334D-01 0.108D+01
 Coeff:     -0.279D-02-0.430D-01-0.708D-01 0.334D-01 0.108D+01
 Gap=     0.392 Goal=   None    Shift=    0.000
 RMSDP=9.71D-08 MaxDP=2.72D-06 DE=-1.47D-09 OVMax= 1.56D-05

 Cycle  10  Pass 1  IDiag  1:
 E= -323.414205317329     Delta-E=       -0.000000000371 Rises=F Damp=F
 DIIS: error= 4.00D-07 at cycle   6 NSaved=   6.
 NSaved= 6 IEnMin= 6 EnMin= -323.414205317329     IErMin= 6 ErrMin= 4.00D-07
 ErrMax= 4.00D-07  0.00D+00 EMaxC= 1.00D-01 BMatC= 3.28D-11 BMatP= 9.87D-11
 IDIUse=1 WtCom= 1.00D+00 WtEn= 0.00D+00
 Coeff-Com:  0.467D-02-0.213D-01-0.694D-01-0.110D+00 0.450D+00 0.746D+00
 Coeff:      0.467D-02-0.213D-01-0.694D-01-0.110D+00 0.450D+00 0.746D+00
 Gap=     0.392 Goal=   None    Shift=    0.000
 RMSDP=3.64D-08 MaxDP=1.22D-06 DE=-3.71D-10 OVMax= 4.30D-06

 Cycle  11  Pass 1  IDiag  1:
 E= -323.414205317389     Delta-E=       -0.000000000060 Rises=F Damp=F
[...]
 ITry= 1 IFail=0 DXMaxC= 1.40D-03 DCOld= 1.00D+10 DXMaxT= 3.00D-01 DXLimC= 3.00D+00 Rises=F
 ClnCor:  largest displacement from symmetrization is 8.58D-10 for atom     4.
 Variable       Old X    -DE/DX   Delta X   Delta X   Delta X     New X
                                 (Linear)    (Quad)   (Total)
    R1        2.53137  -0.00001   0.00000   0.00000   0.00000   2.53137
    R2        2.57410  -0.00002   0.00000  -0.00002  -0.00002   2.57408
    R3        2.04503  -0.00004   0.00000  -0.00011  -0.00011   2.04493
    R4        2.75731  -0.00012   0.00000  -0.00040  -0.00040   2.75691
    R5        2.04203  -0.00001   0.00000  -0.00002  -0.00002   2.04201
    R6        2.75731  -0.00012   0.00000  -0.00040  -0.00040   2.75691
    R7        2.30515   0.00006   0.00000   0.00015   0.00015   2.30530
    R8        2.53137  -0.00001   0.00000   0.00000   0.00000   2.53137
    R9        2.04203  -0.00001   0.00000  -0.00002  -0.00002   2.04201
   R10        2.57410  -0.00002   0.00000  -0.00002  -0.00002   2.57408
   R11        2.04503  -0.00004   0.00000  -0.00011  -0.00011   2.04493
   R12        1.89538  -0.00001   0.00000  -0.00001  -0.00001   1.89537
    A1        2.12309  -0.00001   0.00000  -0.00007  -0.00007   2.12302
    A2        2.14099   0.00004   0.00000   0.00034   0.00034   2.14133
    A3        2.01910  -0.00003   0.00000  -0.00026  -0.00026   2.01883
    A4        2.11847  -0.00000   0.00000  -0.00002  -0.00002   2.11845
    A5        2.10271  -0.00001   0.00000  -0.00012  -0.00012   2.10260
    A6        2.06200   0.00001   0.00000   0.00014   0.00014   2.06214
    A7        1.98509   0.00003   0.00000   0.00019   0.00018   1.98527
    A8        2.14905  -0.00002   0.00000  -0.00009  -0.00009   2.14896
    A9        2.14905  -0.00002   0.00000  -0.00009  -0.00009   2.14896
   A10        2.11847  -0.00000   0.00000  -0.00002  -0.00002   2.11845
   A11        2.06200   0.00001   0.00000   0.00014   0.00014   2.06214
   A12        2.10271  -0.00001   0.00000  -0.00012  -0.00012   2.10260
   A13        2.12309  -0.00001   0.00000  -0.00007  -0.00007   2.12302
   A14        2.14099   0.00004   0.00000   0.00034   0.00034   2.14133
   A15        2.01910  -0.00003   0.00000  -0.00026  -0.00026   2.01883
   A16        2.09815  -0.00001   0.00000  -0.00000  -0.00000   2.09814
   A17        2.09252   0.00001   0.00000   0.00000   0.00000   2.09252
   A18        2.09252   0.00001   0.00000   0.00000   0.00000   2.09252
    D1       -0.00041   0.00002   0.00000   0.00041   0.00041  -0.00000
    D2        3.14138   0.00001   0.00000   0.00021   0.00021  -3.14159
    D3        3.14129   0.00002   0.00000   0.00030   0.00030   3.14159
    D4       -0.00010   0.00001   0.00000   0.00010   0.00010   0.00000
    D5       -0.00014   0.00001   0.00000   0.00014   0.00014   0.00000
    D6        3.14150  -0.00000   0.00000   0.00009   0.00009   3.14159
    D7        3.14136   0.00001   0.00000   0.00024   0.00024  -3.14159
    D8       -0.00019   0.00000   0.00000   0.00019   0.00019   0.00000
    D9        0.00088  -0.00005   0.00000  -0.00088  -0.00088  -0.00000
   D10        3.14037   0.00005   0.00000   0.00123   0.00123  -3.14159
   D11       -3.14091  -0.00004   0.00000  -0.00068  -0.00068   3.14159
   D12       -0.00142   0.00006   0.00000   0.00142   0.00142   0.00000
   D13       -0.00088   0.00005   0.00000   0.00088   0.00088   0.00000
   D14        3.14091   0.00004   0.00000   0.00068   0.00068  -3.14159
   D15       -3.14037  -0.00005   0.00000  -0.00123  -0.00123   3.14159
   D16        0.00142  -0.00006   0.00000  -0.00142  -0.00142  -0.00000
   D17        0.00041  -0.00002   0.00000  -0.00041  -0.00041   0.00000
   D18       -3.14129  -0.00002   0.00000  -0.00030  -0.00030  -3.14159
   D19       -3.14138  -0.00001   0.00000  -0.00021  -0.00021   3.14159
   D20        0.00010  -0.00001   0.00000  -0.00010  -0.00010   0.00000
   D21        0.00014  -0.00001   0.00000  -0.00014  -0.00014  -0.00000
   D22       -3.14150   0.00000   0.00000  -0.00009  -0.00009  -3.14159
   D23       -3.14136  -0.00001   0.00000  -0.00024  -0.00024   3.14159
   D24        0.00019  -0.00000   0.00000  -0.00019  -0.00019  -0.00000
         Item               Value     Threshold  Converged?
 Maximum Force            0.000120     0.000450     YES
 RMS     Force            0.000036     0.000300     YES
 Maximum Displacement     0.001398     0.001800     YES
 RMS     Displacement     0.000268     0.001200     YES
 Predicted change in Energy=-3.273684D-07
 Optimization completed.
    -- Stationary point found.
                           ----------------------------
                           !   Optimized Parameters   !
                           ! (Angstroms and Degrees)  !
 --------------------------                            --------------------------
 ! Name  Definition              Value          Derivative Info.                !
 --------------------------------------------------------------------------------
 ! R1    R(1,2)                  1.3395         -DE/DX =    0.0                 !
 ! R2    R(1,6)                  1.3622         -DE/DX =    0.0                 !
 ! R3    R(1,7)                  1.0822         -DE/DX =    0.0                 !
 ! R4    R(2,3)                  1.4591         -DE/DX =   -0.0001              !
 ! R5    R(2,8)                  1.0806         -DE/DX =    0.0                 !
 ! R6    R(3,4)                  1.4591         -DE/DX =   -0.0001              !
 ! R7    R(3,11)                 1.2198         -DE/DX =    0.0001              !
 ! R8    R(4,5)                  1.3395         -DE/DX =    0.0                 !
 ! R9    R(4,9)                  1.0806         -DE/DX =    0.0                 !
 ! R10   R(5,6)                  1.3622         -DE/DX =    0.0                 !
 ! R11   R(5,10)                 1.0822         -DE/DX =    0.0                 !
 ! R12   R(6,12)                 1.003          -DE/DX =    0.0                 !
 ! A1    A(2,1,6)              121.6444         -DE/DX =    0.0                 !
 ! A2    A(2,1,7)              122.6699         -DE/DX =    0.0                 !
 ! A3    A(6,1,7)              115.6857         -DE/DX =    0.0                 !
 ! A4    A(1,2,3)              121.3796         -DE/DX =    0.0                 !
 ! A5    A(1,2,8)              120.4766         -DE/DX =    0.0                 !
 ! A6    A(3,2,8)              118.1438         -DE/DX =    0.0                 !
 ! A7    A(2,3,4)              113.7372         -DE/DX =    0.0                 !
 ! A8    A(2,3,11)             123.1313         -DE/DX =    0.0                 !
 ! A9    A(4,3,11)             123.1313         -DE/DX =    0.0                 !
 ! A10   A(3,4,5)              121.3796         -DE/DX =    0.0                 !
 ! A11   A(3,4,9)              118.1438         -DE/DX =    0.0                 !
 ! A12   A(5,4,9)              120.4766         -DE/DX =    0.0                 !
 ! A13   A(4,5,6)              121.6444         -DE/DX =    0.0                 !
 ! A14   A(4,5,10)             122.6699         -DE/DX =    0.0                 !
 ! A15   A(6,5,10)             115.6857         -DE/DX =    0.0                 !
 ! A16   A(1,6,5)              120.2149         -DE/DX =    0.0                 !
 ! A17   A(1,6,12)             119.8926         -DE/DX =    0.0                 !
 ! A18   A(5,6,12)             119.8926         -DE/DX =    0.0                 !
 ! D1    D(6,1,2,3)             -0.0237         -DE/DX =    0.0                 !
 ! D2    D(6,1,2,8)           -180.0121         -DE/DX =    0.0                 !
 ! D3    D(7,1,2,3)            179.9825         -DE/DX =    0.0                 !
 ! D4    D(7,1,2,8)             -0.0058         -DE/DX =    0.0                 !
 ! D5    D(2,1,6,5)             -0.0077         -DE/DX =    0.0                 !
 ! D6    D(2,1,6,12)           179.9948         -DE/DX =    0.0                 !
 ! D7    D(7,1,6,5)           -180.0136         -DE/DX =    0.0                 !
 ! D8    D(7,1,6,12)            -0.011          -DE/DX =    0.0                 !
 ! D9    D(1,2,3,4)              0.0503         -DE/DX =    0.0                 !
 ! D10   D(1,2,3,11)          -180.0702         -DE/DX =    0.0001              !
 ! D11   D(8,2,3,4)            180.039          -DE/DX =    0.0                 !
 ! D12   D(8,2,3,11)            -0.0816         -DE/DX =    0.0001              !
 ! D13   D(2,3,4,5)             -0.0503         -DE/DX =    0.0                 !
 ! D14   D(2,3,4,9)           -180.039          -DE/DX =    0.0                 !
 ! D15   D(11,3,4,5)           180.0702         -DE/DX =   -0.0001              !
 ! D16   D(11,3,4,9)             0.0816         -DE/DX =   -0.0001              !
 ! D17   D(3,4,5,6)              0.0237         -DE/DX =    0.0                 !
 ! D18   D(3,4,5,10)          -179.9825         -DE/DX =    0.0                 !
 ! D19   D(9,4,5,6)            180.0121         -DE/DX =    0.0                 !
 ! D20   D(9,4,5,10)             0.0058         -DE/DX =    0.0                 !
 ! D21   D(4,5,6,1)              0.0077         -DE/DX =    0.0                 !
 ! D22   D(4,5,6,12)          -179.9948         -DE/DX =    0.0                 !
 ! D23   D(10,5,6,1)           180.0136         -DE/DX =    0.0                 !
 ! D24   D(10,5,6,12)            0.011          -DE/DX =    0.0                 !
 --------------------------------------------------------------------------------
 GradGradGradGradGradGradGradGradGradGradGradGradGradGradGradGradGradGrad

 Leave Link  103 at Fri Aug 27 21:25:26 2021, MaxMem= 17179869184 cpu:        42.7
 (Enter /public3/home/sc51754/softwares/g09e01/l9999.exe)
 1\1\GINC-T1507\Freq\RLC-wPBE\Gen\C5H5N1O1\SC51754\27-Aug-2021\0\\#P Ge
 om=AllCheck Guess=TCheck SCRF=Check GenChk RLC-wPBE/ChkBas Freq\\4PY_L
 C-wPBE_PC2_OPT_FREQ\\0,1\C,-0.0001492207,-1.0396558202,1.1809345504\C,
 -0.0000318578,0.2992596802,1.2218847146\C,0.0006365673,1.0967500157,0.
 \C,-0.0000318578,0.2992596802,-1.2218847146\C,-0.0001492207,-1.0396558
 202,-1.1809345504\N,-0.0001305593,-1.7185192918,0.\H,-0.0003630511,-1.
 6513924555,2.0736276188\H,-0.0002450078,0.8185982727,2.1695020677\H,-0
 .0002450078,0.8185982727,-2.1695020677\H,-0.0003630511,-1.6513924555,-
 2.0736276188\O,-0.0004906269,2.3165818871,0.\H,-0.0001411065,-2.721511
 9654,0.\\Version=EM64L-G09RevE.01\State=1-A'\HF=-323.4142339\RMSD=2.09
 0e-09\RMSF=8.143e-05\ZeroPoint=0.095128\Thermal=0.1004795\Dipole=0.000
 4214,-2.7577275,0.\DipoleDeriv=-0.042621,-0.000044,-0.0000201,0.000180
 1,0.7758737,0.3041102,-0.0000479,0.4450341,0.4697062,-0.2293711,-0.000
 3031,0.0000955,-0.0001141,-0.6826078,0.031906,-0.0000386,0.5394989,-0.
 1717041,0.2823207,0.0000755,0.,0.0002228,2.041486,0.,0.,0.,0.5900305,-
 0.2293711,-0.0003031,-0.0000955,-0.0001141,-0.6826078,-0.031906,0.0000
 386,-0.5394989,-0.1717041,-0.042621,-0.000044,0.0000201,0.0001801,0.77
 58737,-0.3041102,0.0000479,-0.4450341,0.4697062,-0.2073255,0.0000234,0
 .,-0.0001147,-0.9835922,0.,0.,0.,-0.8390255,0.1461489,-0.0000889,-0.00
 00043,-0.0000041,0.0359875,0.0590443,0.0000486,0.0512382,0.0100866,0.1
 510469,-0.0000145,0.0000417,-0.0000034,0.0613498,-0.0294089,0.0000241,
 -0.0206367,-0.0102526,0.1510469,-0.0000145,-0.0000417,-0.0000034,0.061
 3498,0.0294089,-0.0000241,0.0206367,-0.0102526,0.1461489,-0.0000889,0.
 0000043,-0.0000041,0.0359874,-0.0590443,-0.0000486,-0.0512382,0.010086
 6,-0.4332267,0.0007415,0.,-0.0002254,-1.7455215,0.,0.,0.,-0.4860812,0.
 3078239,0.0000608,0.,0.0000003,0.3064213,0.,0.,0.,0.139404\Polar=37.16
 60247,-0.0002932,89.414744,0.,-0.0000001,65.2272658\PG=CS [SG(C1H1N1O1
 ),X(C4H4)]\NImag=0\\0.14276376,0.00011138,0.87363313,-0.00007832,-0.04
 810076,0.72153349,-0.05687775,-0.00005822,0.00003716,0.10998816,-0.000
 07025,-0.49813765,0.01839129,0.00005886,0.84252157,0.00002560,-0.02336
 134,-0.14060610,-0.00015318,0.08071831,0.66810688,0.00021188,0.0000182
 5,-0.00000441,-0.07619565,-0.00005794,0.00007131,0.20415491,-0.0000127
 7,-0.03503475,0.02219242,-0.00005434,-0.11623347,0.04389431,-0.0004189
 0,0.95400936,-0.00001096,0.04259444,0.04952090,0.00009913,0.03098408,-
 0.23061027,0.,0.,0.56747324,-0.00219161,-0.00000904,-0.00000894,0.0101
 9734,0.00000385,0.00001419,-0.07619565,-0.00005434,-0.00009913,0.10998
 816,0.00000203,-0.01180412,-0.02248544,0.00000385,0.02739682,0.0122752
 0,-0.00005794,-0.11623347,-0.03098408,0.00005886,0.84252157,0.00000103
 ,0.00543480,-0.00243855,-0.00001419,-0.01227520,-0.02522950,-0.0000713
 1,-0.04389430,-0.23061027,0.00015318,-0.08071831,0.66810688,0.00694895
 ,0.00000117,0.00000164,-0.00219161,0.00000203,-0.00000103,0.00021187,-
 0.00001277,0.00001096,-0.05687775,-0.00007025,-0.00002560,0.14276376,0
 .00000117,0.02441620,0.00848496,-0.00000904,-0.01180412,-0.00543480,0.
 00001825,-0.03503475,-0.04259444,-0.00005822,-0.49813765,0.02336134,0.
 00011138,0.87363313,-0.00000164,-0.00848496,-0.07209942,0.00000894,0.0
 2248544,-0.00243855,0.00000441,-0.02219242,0.04952090,-0.00003716,-0.0
 1839129,-0.14060610,0.00007832,0.04810076,0.72153349,-0.05095958,-0.00
 001429,0.00000811,0.01192563,0.00001014,-0.00000743,-0.01172859,-0.000
 00741,0.,0.01192563,0.00001014,0.00000743,-0.05095958,-0.00001429,-0.0
 0000811,0.07101827,-0.00000408,-0.18576155,-0.10454756,0.00000417,-0.0
 4348108,-0.03634786,-0.00000487,0.01795662,0.,0.00000417,-0.04348108,0
 .03634786,-0.00000408,-0.18576154,0.10454757,0.00001815,0.91474877,0.0
 0000939,-0.06885073,-0.29383777,-0.00001110,-0.05775124,0.01171071,0.,
 0.,-0.06444087,0.00001110,0.05775125,0.01171071,-0.00000939,0.06885072
 ,-0.29383777,0.,0.,0.72948649,-0.04068382,-0.00002861,0.00005766,0.008
 28167,-0.00000745,0.00000891,0.01161785,0.00000239,-0.00000429,-0.0011
 6771,0.00000059,-0.00000033,0.00371305,0.00000194,0.00000087,0.0017228
 6,-0.00000546,-0.00000344,0.02614664,-0.00003290,-0.15751421,0.1410042
 3,-0.00001535,-0.01044964,0.02698233,-0.00000016,-0.00323085,-0.004184
 05,0.00000039,0.00051076,0.00029218,-0.00000024,-0.00247848,-0.0020627
 8,0.00000275,0.01344800,-0.02044781,0.00004234,0.15914047,0.00005559,0
 .13272189,-0.25456489,-0.00000322,-0.00222171,0.00674555,0.00000125,-0
 .00166593,-0.00002135,0.00000034,0.00060182,0.00097113,0.00000132,-0.0
 0574417,-0.00134452,0.00000580,0.01770087,-0.02533187,-0.00005930,-0.1
 4275540,0.27318352,-0.00071987,-0.00000577,-0.00000295,-0.03245059,0.0
 0002634,0.00005277,0.00477225,0.00001063,0.00001601,0.00298383,-0.0000
 0193,0.00000426,-0.00001748,-0.00000354,0.00000058,0.00952517,-0.00000
 003,-0.00000074,-0.00586715,-0.00000017,-0.00000070,0.02438748,0.00000
 564,-0.00884164,-0.02864324,0.00002122,-0.12398348,-0.12392571,-0.0000
 0428,0.01285778,0.01573923,-0.00000046,-0.00203990,0.00289560,0.000000
 06,-0.00049137,0.00087474,-0.00000222,-0.00558356,0.00120160,0.0000015
 7,0.00071594,0.00016573,-0.00002207,0.12646963,-0.00000195,0.00338432,
 0.00382858,0.00006479,-0.12664445,-0.29022924,0.00000473,-0.01842899,-
 0.01707623,0.00000301,0.00331258,-0.00374278,-0.00000009,0.00163916,-0
 .00076398,0.00000503,0.00145953,0.00330156,-0.00000315,-0.00049120,0.0
 0068456,-0.00006834,0.13521884,0.30060113,-0.00001748,-0.00000354,-0.0
 0000058,0.00298383,-0.00000193,-0.00000426,0.00477225,0.00001063,-0.00
 001601,-0.03245059,0.00002634,-0.00005277,-0.00071987,-0.00000577,0.00
 000295,0.00952517,-0.00000003,0.00000074,-0.00065176,0.00000026,-0.000
 00024,-0.00094557,0.00000092,-0.00000109,0.02438748,0.00000006,-0.0004
 9137,-0.00087474,-0.00000046,-0.00203990,-0.00289560,-0.00000428,0.012
 85778,-0.01573923,0.00002122,-0.12398348,0.12392571,0.00000564,-0.0088
 4164,0.02864324,-0.00000222,-0.00558356,-0.00120160,0.00000003,0.00008
 174,0.00008544,0.00000092,0.00055257,-0.00077061,-0.00002207,0.1264696
 3,0.00000009,-0.00163916,-0.00076398,-0.00000301,-0.00331258,-0.003742
 78,-0.00000473,0.01842899,-0.01707623,-0.00006479,0.12664445,-0.290229
 24,0.00000195,-0.00338432,0.00382858,-0.00000503,-0.00145953,0.0033015
 6,0.00000051,0.00008448,0.00003631,0.00000109,0.00077061,-0.00097296,0
 .00006834,-0.13521884,0.30060113,0.00371305,0.00000194,-0.00000087,-0.
 00116771,0.00000059,0.00000033,0.01161785,0.00000239,0.00000429,0.0082
 8167,-0.00000745,-0.00000891,-0.04068382,-0.00002861,-0.00005766,0.001
 72286,-0.00000546,0.00000344,0.00095714,-0.00000036,-0.00000016,-0.000
 65176,0.00000003,-0.00000051,-0.00586715,0.00000157,0.00000315,0.02614
 664,-0.00000024,-0.00247848,0.00206278,0.00000039,0.00051076,-0.000292
 18,-0.00000016,-0.00323085,0.00418405,-0.00001535,-0.01044964,-0.02698
 233,-0.00003290,-0.15751421,-0.14100423,0.00000275,0.01344800,0.020447
 81,-0.00000036,0.00042517,0.00065362,0.00000026,0.00008174,-0.00008448
 ,-0.00000017,0.00071594,0.00049120,0.00004234,0.15914047,-0.00000132,0
 .00574417,-0.00134452,-0.00000034,-0.00060182,0.00097113,-0.00000125,0
 .00166593,-0.00002135,0.00000322,0.00222171,0.00674555,-0.00005559,-0.
 13272189,-0.25456489,-0.00000580,-0.01770087,-0.02533187,0.00000016,-0
 .00065362,-0.00098557,0.00000024,-0.00008544,0.00003631,0.00000070,-0.
 00016573,0.00068456,0.00005930,0.14275540,0.27318352,0.00378915,-0.000
 00779,-0.00000255,0.02222206,0.00003097,-0.00000553,-0.07277408,0.0005
 3527,0.,0.02222206,0.00003097,0.00000553,0.00378915,-0.00000779,0.0000
 0255,0.00034810,0.00000503,0.,-0.00224607,0.00000215,-0.00000025,-0.00
 268443,0.00000032,-0.00000328,-0.00268443,0.00000032,0.00000328,-0.002
 24606,0.00000215,0.00000025,0.03061836,-0.00000096,0.01404079,0.011713
 45,0.00004807,-0.06724305,0.03168508,0.00051144,-0.68715087,0.,0.00004
 807,-0.06724305,-0.03168508,-0.00000096,0.01404079,-0.01171344,0.00000
 674,-0.01362650,0.,-0.00000714,-0.00183097,0.00023395,-0.00000402,0.00
 063281,0.00115275,-0.00000402,0.00063281,-0.00115275,-0.00000714,-0.00
 183097,-0.00023395,-0.00059094,0.80778581,0.00000420,-0.00586903,-0.01
 596671,-0.00002600,0.05198025,0.01113093,0.,0.,-0.10460572,0.00002600,
 -0.05198025,0.01113093,-0.00000420,0.00586903,-0.01596671,0.,0.,0.0157
 7121,0.00000279,0.00185472,0.00031947,-0.00000177,-0.00295541,0.004120
 31,0.00000177,0.00295541,0.00412031,-0.00000279,-0.00185472,0.00031947
 ,0.,0.,0.08895977,-0.00597669,-0.00000548,-0.00000596,0.00328461,0.000
 00479,-0.00000169,-0.00046488,-0.00000079,0.,0.00328461,0.00000479,0.0
 0000169,-0.00597668,-0.00000548,0.00000596,-0.00406593,-0.00000749,0.,
 -0.00182269,0.00000130,-0.00000043,0.00166812,-0.00000074,0.00000086,0
 .00166812,-0.00000074,-0.00000086,-0.00182269,0.00000130,0.00000043,-0
 .00035380,0.00000085,0.,0.01057790,0.00000093,-0.01202636,0.00080263,0
 .00000085,0.00294323,-0.00329774,0.00000060,-0.00153253,0.,0.00000085,
 0.00294323,0.00329773,0.00000093,-0.01202635,-0.00080263,-0.00001024,-
 0.47632253,0.,0.00000014,0.00118207,0.00022389,-0.00000062,-0.00037051
 ,0.00025255,-0.00000062,-0.00037051,-0.00025255,0.00000014,0.00118207,
 -0.00022389,-0.00000067,0.00179239,0.,0.00000768,0.49260580,-0.0000017
 1,-0.03357363,0.00673897,0.00000103,-0.00175236,-0.00580876,0.,0.,-0.0
 0205277,-0.00000103,0.00175236,-0.00580876,0.00000171,0.03357363,0.006
 73898,0.,0.,-0.07250210,-0.00000041,0.00037692,0.00030766,-0.00000044,
 -0.00125654,0.00021274,0.00000044,0.00125654,0.00021274,0.00000041,-0.
 00037692,0.00030766,0.,0.,0.00066672,0.,0.,0.07098689\\-0.00000205,-0.
 00002071,-0.00005032,-0.00009790,-0.00009191,0.00011512,0.00030483,0.0
 0023115,0.,-0.00009790,-0.00009191,-0.00011512,-0.00000205,-0.00002071
 ,0.00005032,-0.00001474,0.00001214,0.,0.00001053,0.00000895,0.00005383
 ,0.00000103,0.00001482,-0.00000085,0.00000103,0.00001482,0.00000085,0.
 00001053,0.00000895,-0.00005383,-0.00011519,-0.00005999,0.,0.00000188,
 -0.00000562,0.\\\@


 "MATHEMATICS IS THE ART OF GIVING THE SAME NAME
 TO DIFFERENT THINGS."
                    - H. POINCARE
 Job cpu time:       0 days  0 hours 43 minutes 18.9 seconds.
 File lengths (MBytes):  RWF=     65 Int=      0 D2E=      0 Chk=      7 Scr=      1
 Normal termination of Gaussian 09 at Fri Aug 27 21:25:26 2021.
