 Entering Gaussian System, Link 0=g09
 AtFile(1): pc-2.gbs
            -H     0
            S    4   1.00
                  0.754230D+02           0.240650D-02
                  0.113500D+02           0.184870D-01
                  0.259930D+01           0.897420D-01
                  0.735130D+00           0.281110D+00
            S    1   1.00
                  0.231670D+00           0.100000D+01
            S    1   1.00
                  0.741470D-01           0.100000D+01
            P    1   1.00
                  0.160000D+01           0.100000D+01
            P    1   1.00
                  0.450000D+00           0.100000D+01
            D    1   1.00
                  0.125000D+01           0.100000D+01
            ****
            -C     0
            S    7   1.00
                  0.785710D+04           0.568250D-03
                  0.117870D+04           0.439150D-02
                  0.268320D+03           0.225040D-01
                  0.759480D+02           0.866530D-01
                  0.245590D+02           0.244050D+00
                  0.862120D+01           0.441480D+00
                  0.312780D+01           0.353320D+00
            S    7   1.00
                  0.117870D+04          -0.594920D-06
                  0.268320D+03          -0.627480D-04
                  0.759480D+02          -0.757730D-03
                  0.245590D+02          -0.733080D-02
                  0.862120D+01          -0.389320D-01
                  0.312780D+01          -0.889080D-01
                  0.822020D+00           0.216890D+00
            S    1   1.00
                  0.330170D+00           0.100000D+01
            S    1   1.00
                  0.114630D+00           0.100000D+01
            P    4   1.00
                  0.337750D+02           0.602940D-02
                  0.767660D+01           0.432280D-01
                  0.223570D+01           0.163010D+00
                  0.764470D+00           0.365040D+00
            P    1   1.00
                  0.262320D+00           0.100000D+01
            P    1   1.00
                  0.846380D-01           0.100000D+01
            D    1   1.00
                  0.140000D+01           0.100000D+01
            D    1   1.00
                  0.450000D+00           0.100000D+01
            F    1   1.00
                  0.950000D+00           0.100000D+01
            ****
            -N     0
            S    7   1.00
                  0.111010D+05           0.545700D-03
                  0.166530D+04           0.421810D-02
                  0.379080D+03           0.216450D-01
                  0.107300D+03           0.837760D-01
                  0.347470D+02           0.238810D+00
                  0.122490D+02           0.439940D+00
                  0.447430D+01           0.363640D+00
            S    7   1.00
                  0.166530D+04          -0.150060D-05
                  0.379080D+03          -0.587530D-04
                  0.107300D+03          -0.774530D-03
                  0.347470D+02          -0.721610D-02
                  0.122490D+02          -0.393380D-01
                  0.447430D+01          -0.906110D-01
                  0.124040D+01           0.198820D+00
            S    1   1.00
                  0.487430D+00           0.100000D+01
            S    1   1.00
                  0.164840D+00           0.100000D+01
            P    4   1.00
                  0.479340D+02           0.617060D-02
                  0.109990D+02           0.442600D-01
                  0.324720D+01           0.168250D+00
                  0.111140D+01           0.368480D+00
            P    1   1.00
                  0.379880D+00           0.100000D+01
            P    1   1.00
                  0.120680D+00           0.100000D+01
            D    1   1.00
                  0.180000D+01           0.100000D+01
            D    1   1.00
                  0.550000D+00           0.100000D+01
            F    1   1.00
                  0.102000D+01           0.100000D+01
            ****
            -O     0
            S    7   1.00
                  0.147820D+05           0.535190D-03
                  0.221730D+04           0.413750D-02
                  0.504740D+03           0.212450D-01
                  0.142870D+03           0.824530D-01
                  0.463000D+02           0.236710D+00
                  0.163370D+02           0.440390D+00
                  0.598280D+01           0.364650D+00
            S    7   1.00
                  0.221730D+04          -0.192750D-05
                  0.504740D+03          -0.579640D-04
                  0.142870D+03          -0.794940D-03
                  0.463000D+02          -0.731250D-02
                  0.163370D+02          -0.405740D-01
                  0.598280D+01          -0.915940D-01
                  0.167180D+01           0.209400D+00
            S    1   1.00
                  0.646620D+00           0.100000D+01
            S    1   1.00
                  0.216690D+00           0.100000D+01
            P    4   1.00
                  0.604240D+02           0.689490D-02
                  0.139350D+02           0.490050D-01
                  0.415310D+01           0.182550D+00
                  0.141580D+01           0.376330D+00
            P    1   1.00
                  0.475490D+00           0.100000D+01
            P    1   1.00
                  0.145290D+00           0.100000D+01
            D    1   1.00
                  0.220000D+01           0.100000D+01
            D    1   1.00
                  0.650000D+00           0.100000D+01
            F    1   1.00
                  0.110000D+01           0.100000D+01
            ****
 Initial command:
 /public3/home/sc51754/softwares/g09e01/l1.exe "./Gau-8025.inp" -scrdir="./"
 Entering Link 1 = /public3/home/sc51754/softwares/g09e01/l1.exe PID=      8026.
  
 Copyright (c) 1988,1990,1992,1993,1995,1998,2003,2009,2015,
            Gaussian, Inc.  All Rights Reserved.
  
 This is part of the Gaussian(R) 09 program.  It is based on
 the Gaussian(R) 03 system (copyright 2003, Gaussian, Inc.),
 the Gaussian(R) 98 system (copyright 1998, Gaussian, Inc.),
 the Gaussian(R) 94 system (copyright 1995, Gaussian, Inc.),
 the Gaussian 92(TM) system (copyright 1992, Gaussian, Inc.),
 the Gaussian 90(TM) system (copyright 1990, Gaussian, Inc.),
 the Gaussian 88(TM) system (copyright 1988, Gaussian, Inc.),
 the Gaussian 86(TM) system (copyright 1986, Carnegie Mellon
 University), and the Gaussian 82(TM) system (copyright 1983,
 Carnegie Mellon University). Gaussian is a federally registered
 trademark of Gaussian, Inc.
  
 This software contains proprietary and confidential information,
 including trade secrets, belonging to Gaussian, Inc.
  
 This software is provided under written license and may be
 used, copied, transmitted, or stored only in accord with that
 written license.
  
 The following legend is applicable only to US Government
 contracts under FAR:
  
                    RESTRICTED RIGHTS LEGEND
  
 Use, reproduction and disclosure by the US Government is
 subject to restrictions as set forth in subparagraphs (a)
 and (c) of the Commercial Computer Software - Restricted
 Rights clause in FAR 52.227-19.
  
 Gaussian, Inc.
 340 Quinnipiac St., Bldg. 40, Wallingford CT 06492
  
  
 ---------------------------------------------------------------
 Warning -- This program may not be used in any manner that
 competes with the business of Gaussian, Inc. or will provide
 assistance to any competitor of Gaussian, Inc.  The licensee
 of this program is prohibited from giving any competitor of
 Gaussian, Inc. access to this program.  By using this program,
 the user acknowledges that Gaussian, Inc. is engaged in the
 business of creating and licensing software in the field of
 computational chemistry and represents and warrants to the
 licensee that it is not a competitor of Gaussian, Inc. and that
 it will not use this program in any manner prohibited above.
 ---------------------------------------------------------------
  

 Cite this work as:
 Gaussian 09, Revision E.01,
 M. J. Frisch, G. W. Trucks, H. B. Schlegel, G. E. Scuseria, 
 M. A. Robb, J. R. Cheeseman, G. Scalmani, V. Barone, B. Mennucci, 
 G. A. Petersson, H. Nakatsuji, M. Caricato, X. Li, H. P. Hratchian, 
 A. F. Izmaylov, J. Bloino, G. Zheng, J. L. Sonnenberg, M. Hada, 
 M. Ehara, K. Toyota, R. Fukuda, J. Hasegawa, M. Ishida, T. Nakajima, 
 Y. Honda, O. Kitao, H. Nakai, T. Vreven, J. A. Montgomery, Jr., 
 J. E. Peralta, F. Ogliaro, M. Bearpark, J. J. Heyd, E. Brothers, 
 K. N. Kudin, V. N. Staroverov, T. Keith, R. Kobayashi, J. Normand, 
 K. Raghavachari, A. Rendell, J. C. Burant, S. S. Iyengar, J. Tomasi, 
 M. Cossi, N. Rega, J. M. Millam, M. Klene, J. E. Knox, J. B. Cross, 
 V. Bakken, C. Adamo, J. Jaramillo, R. Gomperts, R. E. Stratmann, 
 O. Yazyev, A. J. Austin, R. Cammi, C. Pomelli, J. W. Ochterski, 
 R. L. Martin, K. Morokuma, V. G. Zakrzewski, G. A. Voth, 
 P. Salvador, J. J. Dannenberg, S. Dapprich, A. D. Daniels, 
 O. Farkas, J. B. Foresman, J. V. Ortiz, J. Cioslowski, 
 and D. J. Fox, Gaussian, Inc., Wallingford CT, 2013.
 
 ******************************************
 Gaussian 09:  EM64L-G09RevE.01 30-Nov-2015
                27-Aug-2021 
 ******************************************
 %nprocshared=64
 Will use up to   64 processors via shared memory.
 %mem=128GB
 %chk=4PY_SVWN_PC2_OPT_FREQ.chk
 --------------------
 #p opt freq SVWN/gen
 --------------------
 1/14=-1,18=20,19=15,26=3,38=1/1,3;
 2/9=110,12=2,17=6,18=5,40=1/2;
 3/5=7,11=2,16=1,25=1,30=1,71=1,74=205/1,2,3;
 4//1;
 5/5=2,38=5/2;
 6/7=2,8=2,9=2,10=2,28=1/1;
 7//1,2,3,16;
 1/14=-1,18=20,19=15,26=3/3(2);
 2/9=110/2;
 99//99;
 2/9=110/2;
 3/5=7,6=1,11=2,16=1,25=1,30=1,71=1,74=205,82=7/1,2,3;
 4/5=5,16=3,69=1/1;
 5/5=2,38=5/2;
 7//1,2,3,16;
 1/14=-1,18=20,19=15,26=3/3(-5);
 2/9=110/2;
 6/7=2,8=2,9=2,10=2,19=2,28=1/1;
 99/9=1/99;
 Leave Link    1 at Fri Aug 27 21:08:41 2021, MaxMem= 17179869184 cpu:         5.1
 (Enter /public3/home/sc51754/softwares/g09e01/l101.exe)
 ---------------------
 4PY_SVWN_PC2_OPT_FREQ
 ---------------------
 Symbolic Z-matrix:
 Charge =  0 Multiplicity = 1
 C                    -0.00018  -1.04887   1.19382 
 C                    -0.00018   0.30655   1.22857 
 C                     0.00022   1.11152   0. 
 C                    -0.00018   0.30655  -1.22857 
 C                    -0.00018  -1.04887  -1.19382 
 N                     0.00002  -1.72968   0. 
 H                    -0.00063  -1.66693   2.08522 
 H                    -0.00059   0.82774   2.17893 
 H                    -0.00059   0.82774  -2.17893 
 H                    -0.00063  -1.66693  -2.08522 
 O                     0.0006    2.34525   0. 
 H                     0.00063  -2.73716   0. 
 
 NAtoms=     12 NQM=       12 NQMF=       0 NMMI=      0 NMMIF=      0
                NMic=       0 NMicF=      0.
                    Isotopes and Nuclear Properties:
 (Nuclear quadrupole moments (NQMom) in fm**2, nuclear magnetic moments (NMagM)
  in nuclear magnetons)

  Atom         1           2           3           4           5           6           7           8           9          10
 IAtWgt=          12          12          12          12          12          14           1           1           1           1
 AtmWgt=  12.0000000  12.0000000  12.0000000  12.0000000  12.0000000  14.0030740   1.0078250   1.0078250   1.0078250   1.0078250
 NucSpn=           0           0           0           0           0           2           1           1           1           1
 AtZEff=   0.0000000   0.0000000   0.0000000   0.0000000   0.0000000   0.0000000   0.0000000   0.0000000   0.0000000   0.0000000
 NQMom=    0.0000000   0.0000000   0.0000000   0.0000000   0.0000000   2.0440000   0.0000000   0.0000000   0.0000000   0.0000000
 NMagM=    0.0000000   0.0000000   0.0000000   0.0000000   0.0000000   0.4037610   2.7928460   2.7928460   2.7928460   2.7928460
 AtZNuc=   6.0000000   6.0000000   6.0000000   6.0000000   6.0000000   7.0000000   1.0000000   1.0000000   1.0000000   1.0000000

  Atom        11          12
 IAtWgt=          16           1
 AtmWgt=  15.9949146   1.0078250
 NucSpn=           0           1
 AtZEff=   0.0000000   0.0000000
 NQMom=    0.0000000   0.0000000
 NMagM=    0.0000000   2.7928460
 AtZNuc=   8.0000000   1.0000000
 Leave Link  101 at Fri Aug 27 21:08:42 2021, MaxMem= 17179869184 cpu:         7.5
 (Enter /public3/home/sc51754/softwares/g09e01/l103.exe)

 GradGradGradGradGradGradGradGradGradGradGradGradGradGradGradGradGradGrad
 Berny optimization.
 Initialization pass.
                           ----------------------------
                           !    Initial Parameters    !
                           ! (Angstroms and Degrees)  !
 --------------------------                            --------------------------
 ! Name  Definition              Value          Derivative Info.                !
 --------------------------------------------------------------------------------
 ! R1    R(1,2)                  1.3559         estimate D2E/DX2                !
 ! R2    R(1,6)                  1.3743         estimate D2E/DX2                !
 ! R3    R(1,7)                  1.0847         estimate D2E/DX2                !
 ! R4    R(2,3)                  1.4688         estimate D2E/DX2                !
 ! R5    R(2,8)                  1.0839         estimate D2E/DX2                !
 ! R6    R(3,4)                  1.4688         estimate D2E/DX2                !
 ! R7    R(3,11)                 1.2337         estimate D2E/DX2                !
 ! R8    R(4,5)                  1.3559         estimate D2E/DX2                !
 ! R9    R(4,9)                  1.0839         estimate D2E/DX2                !
 ! R10   R(5,6)                  1.3743         estimate D2E/DX2                !
 ! R11   R(5,10)                 1.0847         estimate D2E/DX2                !
 ! R12   R(6,12)                 1.0075         estimate D2E/DX2                !
 ! A1    A(2,1,6)              121.1639         estimate D2E/DX2                !
 ! A2    A(2,1,7)              123.267          estimate D2E/DX2                !
 ! A3    A(6,1,7)              115.5691         estimate D2E/DX2                !
 ! A4    A(1,2,3)              121.7645         estimate D2E/DX2                !
 ! A5    A(1,2,8)              120.2096         estimate D2E/DX2                !
 ! A6    A(3,2,8)              118.0259         estimate D2E/DX2                !
 ! A7    A(2,3,4)              113.5338         estimate D2E/DX2                !
 ! A8    A(2,3,11)             123.2331         estimate D2E/DX2                !
 ! A9    A(4,3,11)             123.2331         estimate D2E/DX2                !
 ! A10   A(3,4,5)              121.7645         estimate D2E/DX2                !
 ! A11   A(3,4,9)              118.0259         estimate D2E/DX2                !
 ! A12   A(5,4,9)              120.2096         estimate D2E/DX2                !
 ! A13   A(4,5,6)              121.1639         estimate D2E/DX2                !
 ! A14   A(4,5,10)             123.267          estimate D2E/DX2                !
 ! A15   A(6,5,10)             115.5691         estimate D2E/DX2                !
 ! A16   A(1,6,5)              120.6094         estimate D2E/DX2                !
 ! A17   A(1,6,12)             119.6953         estimate D2E/DX2                !
 ! A18   A(5,6,12)             119.6953         estimate D2E/DX2                !
 ! D1    D(6,1,2,3)             -0.0087         estimate D2E/DX2                !
 ! D2    D(6,1,2,8)            179.9852         estimate D2E/DX2                !
 ! D3    D(7,1,2,3)           -179.9904         estimate D2E/DX2                !
 ! D4    D(7,1,2,8)              0.0035         estimate D2E/DX2                !
 ! D5    D(2,1,6,5)             -0.0199         estimate D2E/DX2                !
 ! D6    D(2,1,6,12)           179.9596         estimate D2E/DX2                !
 ! D7    D(7,1,6,5)            179.9631         estimate D2E/DX2                !
 ! D8    D(7,1,6,12)            -0.0574         estimate D2E/DX2                !
 ! D9    D(1,2,3,4)              0.0339         estimate D2E/DX2                !
 ! D10   D(1,2,3,11)          -179.9797         estimate D2E/DX2                !
 ! D11   D(8,2,3,4)           -179.9602         estimate D2E/DX2                !
 ! D12   D(8,2,3,11)             0.0262         estimate D2E/DX2                !
 ! D13   D(2,3,4,5)             -0.0339         estimate D2E/DX2                !
 ! D14   D(2,3,4,9)            179.9602         estimate D2E/DX2                !
 ! D15   D(11,3,4,5)           179.9797         estimate D2E/DX2                !
 ! D16   D(11,3,4,9)            -0.0262         estimate D2E/DX2                !
 ! D17   D(3,4,5,6)              0.0087         estimate D2E/DX2                !
 ! D18   D(3,4,5,10)           179.9904         estimate D2E/DX2                !
 ! D19   D(9,4,5,6)           -179.9852         estimate D2E/DX2                !
 ! D20   D(9,4,5,10)            -0.0035         estimate D2E/DX2                !
 ! D21   D(4,5,6,1)              0.0199         estimate D2E/DX2                !
 ! D22   D(4,5,6,12)          -179.9596         estimate D2E/DX2                !
 ! D23   D(10,5,6,1)          -179.9631         estimate D2E/DX2                !
 ! D24   D(10,5,6,12)            0.0574         estimate D2E/DX2                !
 --------------------------------------------------------------------------------
 Trust Radius=3.00D-01 FncErr=1.00D-07 GrdErr=1.00D-06
 Number of steps in this run=     64 maximum allowed number of steps=    100.
 GradGradGradGradGradGradGradGradGradGradGradGradGradGradGradGradGradGrad

 Leave Link  103 at Fri Aug 27 21:08:42 2021, MaxMem= 17179869184 cpu:         0.6
 (Enter /public3/home/sc51754/softwares/g09e01/l202.exe)
                          Input orientation:                          
 ---------------------------------------------------------------------
 Center     Atomic      Atomic             Coordinates (Angstroms)
 Number     Number       Type             X           Y           Z
 ---------------------------------------------------------------------
      1          6           0       -0.000184   -1.048866    1.193818
      2          6           0       -0.000184    0.306549    1.228568
      3          6           0        0.000221    1.111516    0.000000
      4          6           0       -0.000184    0.306549   -1.228568
      5          6           0       -0.000184   -1.048866   -1.193818
      6          7           0        0.000018   -1.729678    0.000000
      7          1           0       -0.000630   -1.666925    2.085223
      8          1           0       -0.000587    0.827738    2.178925
      9          1           0       -0.000587    0.827738   -2.178925
     10          1           0       -0.000630   -1.666925   -2.085223
     11          8           0        0.000597    2.345248    0.000000
     12          1           0        0.000630   -2.737158    0.000000
 ---------------------------------------------------------------------
                    Distance matrix (angstroms):
                    1          2          3          4          5
     1  C    0.000000
     2  C    1.355860   0.000000
     3  C    2.468289   1.468792   0.000000
     4  C    2.775807   2.457136   1.468792   0.000000
     5  C    2.387636   2.775807   2.468289   1.355860   0.000000
     6  N    1.374302   2.378150   2.841194   2.378150   1.374302
     7  H    1.084712   2.151385   3.473887   3.856917   3.336781
     8  H    2.119452   1.083890   2.197327   3.447122   3.859668
     9  H    3.859668   3.447122   2.197327   1.083890   2.119452
    10  H    3.336781   3.856917   3.473887   2.151385   1.084712
    11  O    3.597946   2.380268   1.233732   2.380268   3.597946
    12  H    2.067736   3.282306   3.848674   3.282306   2.067736
                    6          7          8          9         10
     6  N    0.000000
     7  H    2.086167   0.000000
     8  H    3.359775   2.496422   0.000000
     9  H    3.359775   4.940273   4.357850   0.000000
    10  H    2.086167   4.170446   4.940273   2.496422   0.000000
    11  O    4.074926   4.521691   2.655288   2.655288   4.521691
    12  H    1.007480   2.343833   4.178062   4.178062   2.343833
                   11         12
    11  O    0.000000
    12  H    5.082406   0.000000
 Stoichiometry    C5H5NO
 Framework group  CS[SG(CHNO),X(C4H4)]
 Deg. of freedom    17
 Full point group                 CS      NOp   2
 Largest Abelian subgroup         CS      NOp   2
 Largest concise Abelian subgroup CS      NOp   2
                         Standard orientation:                         
 ---------------------------------------------------------------------
 Center     Atomic      Atomic             Coordinates (Angstroms)
 Number     Number       Type             X           Y           Z
 ---------------------------------------------------------------------
      1          6           0        0.000184    1.048866    1.193818
      2          6           0        0.000184   -0.306549    1.228568
      3          6           0       -0.000221   -1.111516   -0.000000
      4          6           0        0.000184   -0.306549   -1.228568
      5          6           0        0.000184    1.048866   -1.193818
      6          7           0       -0.000018    1.729678    0.000000
      7          1           0        0.000630    1.666925    2.085223
      8          1           0        0.000587   -0.827738    2.178925
      9          1           0        0.000587   -0.827738   -2.178925
     10          1           0        0.000630    1.666925   -2.085223
     11          8           0       -0.000597   -2.345248   -0.000000
     12          1           0       -0.000630    2.737158    0.000000
 ---------------------------------------------------------------------
 Rotational constants (GHZ):      5.6935111      2.6926956      1.8281082
 Leave Link  202 at Fri Aug 27 21:08:42 2021, MaxMem= 17179869184 cpu:         4.1
 (Enter /public3/home/sc51754/softwares/g09e01/l301.exe)
 General basis read from cards:  (5D, 7F)
 Centers:       7      8      9     10     12
 S 4 1.00
     Exponent=  7.5423000000D+01 Coefficients=  2.4065000000D-03
     Exponent=  1.1350000000D+01 Coefficients=  1.8487000000D-02
     Exponent=  2.5993000000D+00 Coefficients=  8.9742000000D-02
     Exponent=  7.3513000000D-01 Coefficients=  2.8111000000D-01
 S 1 1.00
     Exponent=  2.3167000000D-01 Coefficients=  1.0000000000D+00
 S 1 1.00
     Exponent=  7.4147000000D-02 Coefficients=  1.0000000000D+00
 P 1 1.00
     Exponent=  1.6000000000D+00 Coefficients=  1.0000000000D+00
 P 1 1.00
     Exponent=  4.5000000000D-01 Coefficients=  1.0000000000D+00
 D 1 1.00
     Exponent=  1.2500000000D+00 Coefficients=  1.0000000000D+00
 ****
 Centers:       1      2      3      4      5
 S 7 1.00
     Exponent=  7.8571000000D+03 Coefficients=  5.6825000000D-04
     Exponent=  1.1787000000D+03 Coefficients=  4.3915000000D-03
     Exponent=  2.6832000000D+02 Coefficients=  2.2504000000D-02
     Exponent=  7.5948000000D+01 Coefficients=  8.6653000000D-02
     Exponent=  2.4559000000D+01 Coefficients=  2.4405000000D-01
     Exponent=  8.6212000000D+00 Coefficients=  4.4148000000D-01
     Exponent=  3.1278000000D+00 Coefficients=  3.5332000000D-01
 S 7 1.00
     Exponent=  1.1787000000D+03 Coefficients= -5.9492000000D-07
     Exponent=  2.6832000000D+02 Coefficients= -6.2748000000D-05
     Exponent=  7.5948000000D+01 Coefficients= -7.5773000000D-04
     Exponent=  2.4559000000D+01 Coefficients= -7.3308000000D-03
     Exponent=  8.6212000000D+00 Coefficients= -3.8932000000D-02
     Exponent=  3.1278000000D+00 Coefficients= -8.8908000000D-02
     Exponent=  8.2202000000D-01 Coefficients=  2.1689000000D-01
 S 1 1.00
     Exponent=  3.3017000000D-01 Coefficients=  1.0000000000D+00
 S 1 1.00
     Exponent=  1.1463000000D-01 Coefficients=  1.0000000000D+00
 P 4 1.00
     Exponent=  3.3775000000D+01 Coefficients=  6.0294000000D-03
     Exponent=  7.6766000000D+00 Coefficients=  4.3228000000D-02
     Exponent=  2.2357000000D+00 Coefficients=  1.6301000000D-01
     Exponent=  7.6447000000D-01 Coefficients=  3.6504000000D-01
 P 1 1.00
     Exponent=  2.6232000000D-01 Coefficients=  1.0000000000D+00
 P 1 1.00
     Exponent=  8.4638000000D-02 Coefficients=  1.0000000000D+00
 D 1 1.00
     Exponent=  1.4000000000D+00 Coefficients=  1.0000000000D+00
 D 1 1.00
     Exponent=  4.5000000000D-01 Coefficients=  1.0000000000D+00
 F 1 1.00
     Exponent=  9.5000000000D-01 Coefficients=  1.0000000000D+00
 ****
 Centers:       6
 S 7 1.00
     Exponent=  1.1101000000D+04 Coefficients=  5.4570000000D-04
     Exponent=  1.6653000000D+03 Coefficients=  4.2181000000D-03
     Exponent=  3.7908000000D+02 Coefficients=  2.1645000000D-02
     Exponent=  1.0730000000D+02 Coefficients=  8.3776000000D-02
     Exponent=  3.4747000000D+01 Coefficients=  2.3881000000D-01
     Exponent=  1.2249000000D+01 Coefficients=  4.3994000000D-01
     Exponent=  4.4743000000D+00 Coefficients=  3.6364000000D-01
 S 7 1.00
     Exponent=  1.6653000000D+03 Coefficients= -1.5006000000D-06
     Exponent=  3.7908000000D+02 Coefficients= -5.8753000000D-05
     Exponent=  1.0730000000D+02 Coefficients= -7.7453000000D-04
     Exponent=  3.4747000000D+01 Coefficients= -7.2161000000D-03
     Exponent=  1.2249000000D+01 Coefficients= -3.9338000000D-02
     Exponent=  4.4743000000D+00 Coefficients= -9.0611000000D-02
     Exponent=  1.2404000000D+00 Coefficients=  1.9882000000D-01
 S 1 1.00
     Exponent=  4.8743000000D-01 Coefficients=  1.0000000000D+00
 S 1 1.00
     Exponent=  1.6484000000D-01 Coefficients=  1.0000000000D+00
 P 4 1.00
     Exponent=  4.7934000000D+01 Coefficients=  6.1706000000D-03
     Exponent=  1.0999000000D+01 Coefficients=  4.4260000000D-02
     Exponent=  3.2472000000D+00 Coefficients=  1.6825000000D-01
     Exponent=  1.1114000000D+00 Coefficients=  3.6848000000D-01
 P 1 1.00
     Exponent=  3.7988000000D-01 Coefficients=  1.0000000000D+00
 P 1 1.00
     Exponent=  1.2068000000D-01 Coefficients=  1.0000000000D+00
 D 1 1.00
     Exponent=  1.8000000000D+00 Coefficients=  1.0000000000D+00
 D 1 1.00
     Exponent=  5.5000000000D-01 Coefficients=  1.0000000000D+00
 F 1 1.00
     Exponent=  1.0200000000D+00 Coefficients=  1.0000000000D+00
 ****
 Centers:      11
 S 7 1.00
     Exponent=  1.4782000000D+04 Coefficients=  5.3519000000D-04
     Exponent=  2.2173000000D+03 Coefficients=  4.1375000000D-03
     Exponent=  5.0474000000D+02 Coefficients=  2.1245000000D-02
     Exponent=  1.4287000000D+02 Coefficients=  8.2453000000D-02
     Exponent=  4.6300000000D+01 Coefficients=  2.3671000000D-01
     Exponent=  1.6337000000D+01 Coefficients=  4.4039000000D-01
     Exponent=  5.9828000000D+00 Coefficients=  3.6465000000D-01
 S 7 1.00
     Exponent=  2.2173000000D+03 Coefficients= -1.9275000000D-06
     Exponent=  5.0474000000D+02 Coefficients= -5.7964000000D-05
     Exponent=  1.4287000000D+02 Coefficients= -7.9494000000D-04
     Exponent=  4.6300000000D+01 Coefficients= -7.3125000000D-03
     Exponent=  1.6337000000D+01 Coefficients= -4.0574000000D-02
     Exponent=  5.9828000000D+00 Coefficients= -9.1594000000D-02
     Exponent=  1.6718000000D+00 Coefficients=  2.0940000000D-01
 S 1 1.00
     Exponent=  6.4662000000D-01 Coefficients=  1.0000000000D+00
 S 1 1.00
     Exponent=  2.1669000000D-01 Coefficients=  1.0000000000D+00
 P 4 1.00
     Exponent=  6.0424000000D+01 Coefficients=  6.8949000000D-03
     Exponent=  1.3935000000D+01 Coefficients=  4.9005000000D-02
     Exponent=  4.1531000000D+00 Coefficients=  1.8255000000D-01
     Exponent=  1.4158000000D+00 Coefficients=  3.7633000000D-01
 P 1 1.00
     Exponent=  4.7549000000D-01 Coefficients=  1.0000000000D+00
 P 1 1.00
     Exponent=  1.4529000000D-01 Coefficients=  1.0000000000D+00
 D 1 1.00
     Exponent=  2.2000000000D+00 Coefficients=  1.0000000000D+00
 D 1 1.00
     Exponent=  6.5000000000D-01 Coefficients=  1.0000000000D+00
 F 1 1.00
     Exponent=  1.1000000000D+00 Coefficients=  1.0000000000D+00
 ****
 Ernie: Thresh=  0.10000D-02 Tol=  0.10000D-05 Strict=F.
 Ernie:  7 primitive shells out of 220 were deleted.
 There are   183 symmetry adapted cartesian basis functions of A'  symmetry.
 There are   137 symmetry adapted cartesian basis functions of A"  symmetry.
 There are   158 symmetry adapted basis functions of A'  symmetry.
 There are   122 symmetry adapted basis functions of A"  symmetry.
   280 basis functions,   475 primitive gaussians,   320 cartesian basis functions
    25 alpha electrons       25 beta electrons
       nuclear repulsion energy       273.2804388411 Hartrees.
 IExCor=  205 DFT=T Ex=S Corr=VWN ExCW=0 ScaHFX=  0.000000
 ScaDFX=  1.000000  1.000000  1.000000  1.000000 ScalE2=  1.000000  1.000000
 IRadAn=      0 IRanWt=     -1 IRanGd=            0 ICorTp=0 IEmpDi=  4
 NAtoms=   12 NActive=   12 NUniq=    8 SFac= 2.25D+00 NAtFMM=   60 NAOKFM=F Big=F
 Integral buffers will be    131072 words long.
 Raffenetti 2 integral format.
 Two-electron integral symmetry is turned on.
 Leave Link  301 at Fri Aug 27 21:08:42 2021, MaxMem= 17179869184 cpu:         3.6
 (Enter /public3/home/sc51754/softwares/g09e01/l302.exe)
 NPDir=0 NMtPBC=     1 NCelOv=     1 NCel=       1 NClECP=     1 NCelD=      1
         NCelK=      1 NCelE2=     1 NClLst=     1 CellRange=     0.0.
 One-electron integrals computed using PRISM.
 One-electron integral symmetry used in STVInt
 NBasis=   280 RedAO= T EigKep=  1.83D-04  NBF=   158   122
 NBsUse=   280 1.00D-06 EigRej= -1.00D+00 NBFU=   158   122
 Precomputing XC quadrature grid using
 IXCGrd= 4 IRadAn=           0 IRanWt=          -1 IRanGd=           0 AccXCQ= 0.00D+00.
 Generated NRdTot=       0 NPtTot=           0 NUsed=           0 NTot=          32
 NSgBfM=   320   320   320   320   320 MxSgAt=    12 MxSgA2=    12.
 Leave Link  302 at Fri Aug 27 21:08:43 2021, MaxMem= 17179869184 cpu:        45.2
 (Enter /public3/home/sc51754/softwares/g09e01/l303.exe)
 DipDrv:  MaxL=1.
 Leave Link  303 at Fri Aug 27 21:08:44 2021, MaxMem= 17179869184 cpu:         7.8
 (Enter /public3/home/sc51754/softwares/g09e01/l401.exe)
 ExpMin= 7.41D-02 ExpMax= 1.48D+04 ExpMxC= 5.05D+02 IAcc=2 IRadAn=         4 AccDes= 0.00D+00
 Harris functional with IExCor=  205 and IRadAn=       4 diagonalized for initial guess.
 HarFok:  IExCor=  205 AccDes= 0.00D+00 IRadAn=         4 IDoV= 1 UseB2=F ITyADJ=14
 ICtDFT=  3500011 ScaDFX=  1.000000  1.000000  1.000000  1.000000
 FoFCou: FMM=F IPFlag=           0 FMFlag=      100000 FMFlg1=           0
         NFxFlg=           0 DoJE=T BraDBF=F KetDBF=T FulRan=T
         wScrn=  0.000000 ICntrl=     500 IOpCl=  0 I1Cent=   200000004 NGrid=           0
         NMat0=    1 NMatS0=      1 NMatT0=    0 NMatD0=    1 NMtDS0=    0 NMtDT0=    0
 Petite list used in FoFCou.
 Harris En= -322.053081660067    
 JPrj=0 DoOrth=F DoCkMO=F.
 Initial guess orbital symmetries:
       Occupied  (A') (A') (A") (A') (A") (A') (A') (A') (A') (A')
                 (A") (A") (A') (A') (A") (A') (A') (A") (A') (A')
                 (A") (A') (A") (A") (A')
       Virtual   (A') (A") (A') (A') (A") (A') (A') (A") (A') (A')
                 (A") (A') (A') (A") (A") (A") (A') (A') (A") (A')
                 (A") (A") (A') (A') (A') (A') (A") (A') (A") (A')
                 (A') (A") (A') (A') (A') (A") (A') (A") (A") (A')
                 (A") (A') (A') (A') (A") (A') (A") (A") (A") (A')
                 (A') (A") (A") (A') (A') (A') (A') (A") (A') (A')
                 (A') (A") (A') (A') (A") (A") (A') (A') (A") (A")
                 (A') (A") (A") (A') (A") (A') (A') (A") (A') (A")
                 (A') (A') (A") (A") (A') (A') (A') (A') (A") (A')
                 (A") (A") (A') (A") (A") (A') (A') (A") (A') (A')
                 (A") (A') (A") (A") (A') (A") (A') (A') (A") (A')
                 (A') (A") (A') (A") (A") (A') (A') (A') (A") (A")
                 (A") (A') (A") (A') (A') (A") (A') (A") (A") (A')
                 (A') (A") (A') (A") (A') (A') (A') (A") (A') (A')
                 (A") (A") (A") (A') (A") (A') (A') (A') (A') (A")
                 (A') (A") (A') (A') (A") (A") (A') (A") (A") (A')
                 (A') (A") (A') (A") (A') (A') (A") (A") (A") (A")
                 (A') (A') (A") (A') (A") (A') (A") (A') (A') (A')
                 (A") (A') (A") (A') (A') (A") (A') (A") (A') (A")
                 (A") (A') (A") (A') (A") (A') (A") (A') (A") (A')
                 (A') (A') (A') (A") (A") (A") (A") (A') (A') (A')
                 (A') (A') (A") (A") (A") (A') (A") (A') (A") (A')
                 (A') (A") (A") (A') (A") (A") (A') (A") (A') (A")
                 (A') (A') (A") (A') (A') (A') (A") (A") (A") (A')
                 (A') (A') (A") (A') (A") (A') (A') (A") (A') (A')
                 (A") (A') (A") (A') (A')
 The electronic state of the initial guess is 1-A'.
 Leave Link  401 at Fri Aug 27 21:08:44 2021, MaxMem= 17179869184 cpu:        43.3
 (Enter /public3/home/sc51754/softwares/g09e01/l502.exe)
 Closed shell SCF:
 Using DIIS extrapolation, IDIIS=  1040.
 Integral symmetry usage will be decided dynamically.
 Keep J ints in memory in symmetry-blocked form, NReq=1161351758.
 IVT=      348938 IEndB=      348938 NGot= 17179869184 MDV= 16792355177
 LenX= 16792355177 LenY= 16792252336
 Requested convergence on RMS density matrix=1.00D-08 within 128 cycles.
 Requested convergence on MAX density matrix=1.00D-06.
 Requested convergence on             energy=1.00D-06.
 No special actions if energy rises.
 FoFCou: FMM=F IPFlag=           0 FMFlag=           0 FMFlg1=           0
         NFxFlg=           0 DoJE=F BraDBF=F KetDBF=F FulRan=T
         wScrn=  0.000000 ICntrl=     600 IOpCl=  0 I1Cent=           0 NGrid=           0
         NMat0=    1 NMatS0=  39340 NMatT0=    0 NMatD0=    1 NMtDS0=    0 NMtDT0=    0
 Petite list used in FoFCou.
 Integral accuracy reduced to 1.0D-05 until final iterations.

 Cycle   1  Pass 0  IDiag  1:
 E= -321.679642551530    
 DIIS: error= 3.14D-02 at cycle   1 NSaved=   1.
 NSaved= 1 IEnMin= 1 EnMin= -321.679642551530     IErMin= 1 ErrMin= 3.14D-02
 ErrMax= 3.14D-02  0.00D+00 EMaxC= 1.00D-01 BMatC= 2.05D-01 BMatP= 2.05D-01
 IDIUse=3 WtCom= 6.86D-01 WtEn= 3.14D-01
 Coeff-Com:  0.100D+01
 Coeff-En:   0.100D+01
 Coeff:      0.100D+01
 Gap=    -0.043 Goal=   None    Shift=    0.000
 GapD=   -0.043 DampG=0.250 DampE=0.500 DampFc=0.2500 IDamp=-1.
 Damping current iteration by 2.50D-01
 RMSDP=1.62D-02 MaxDP=2.11D+00              OVMax= 9.92D-01

 Cycle   2  Pass 0  IDiag  1:
 E= -321.597876479287     Delta-E=        0.081766072243 Rises=F Damp=T
 DIIS: error= 1.65D-02 at cycle   2 NSaved=   2.
 NSaved= 2 IEnMin= 1 EnMin= -321.679642551530     IErMin= 2 ErrMin= 1.65D-02
 ErrMax= 1.65D-02  0.00D+00 EMaxC= 1.00D-01 BMatC= 5.79D-02 BMatP= 2.05D-01
 IDIUse=3 WtCom= 8.35D-01 WtEn= 1.65D-01
 Coeff-Com:  0.211D+00 0.789D+00
 Coeff-En:   0.641D+00 0.359D+00
 Coeff:      0.282D+00 0.718D+00
 Gap=     0.007 Goal=   None    Shift=    0.000
 RMSDP=4.23D-03 MaxDP=5.24D-01 DE= 8.18D-02 OVMax= 8.43D-01

 Cycle   3  Pass 0  IDiag  1:
 E= -321.617818968895     Delta-E=       -0.019942489608 Rises=F Damp=F
 DIIS: error= 3.73D-02 at cycle   3 NSaved=   3.
 NSaved= 3 IEnMin= 1 EnMin= -321.679642551530     IErMin= 2 ErrMin= 1.65D-02
 ErrMax= 3.73D-02  0.00D+00 EMaxC= 1.00D-01 BMatC= 2.40D-01 BMatP= 5.79D-02
 IDIUse=2 WtCom= 0.00D+00 WtEn= 1.00D+00
 EnCoef did     3 forward-backward iterations
 Coeff-En:   0.296D+00 0.349D+00 0.355D+00
 Coeff:      0.296D+00 0.349D+00 0.355D+00
 Gap=     0.119 Goal=   None    Shift=    0.000
 RMSDP=3.49D-03 MaxDP=1.35D-01 DE=-1.99D-02 OVMax= 5.63D-01

 Cycle   4  Pass 0  IDiag  1:
 E= -321.589885638214     Delta-E=        0.027933330680 Rises=F Damp=F
 DIIS: error= 4.23D-02 at cycle   4 NSaved=   4.
 NSaved= 4 IEnMin= 1 EnMin= -321.679642551530     IErMin= 2 ErrMin= 1.65D-02
 ErrMax= 4.23D-02  0.00D+00 EMaxC= 1.00D-01 BMatC= 3.04D-01 BMatP= 5.79D-02
 IDIUse=2 WtCom= 0.00D+00 WtEn= 1.00D+00
 EnCoef did     3 forward-backward iterations
 Coeff-En:   0.247D+00 0.000D+00 0.338D+00 0.415D+00
 Coeff:      0.247D+00 0.000D+00 0.338D+00 0.415D+00
 Gap=     0.120 Goal=   None    Shift=    0.000
 RMSDP=2.28D-03 MaxDP=9.30D-02 DE= 2.79D-02 OVMax= 3.19D-01

 Cycle   5  Pass 0  IDiag  1:
 E= -321.876220207687     Delta-E=       -0.286334569472 Rises=F Damp=F
 DIIS: error= 5.81D-03 at cycle   5 NSaved=   5.
 NSaved= 5 IEnMin= 5 EnMin= -321.876220207687     IErMin= 5 ErrMin= 5.81D-03
 ErrMax= 5.81D-03  0.00D+00 EMaxC= 1.00D-01 BMatC= 8.49D-03 BMatP= 5.79D-02
 IDIUse=3 WtCom= 9.42D-01 WtEn= 5.81D-02
 Coeff-Com:  0.375D-02 0.189D+00 0.155D+00 0.107D+00 0.545D+00
 Coeff-En:   0.000D+00 0.000D+00 0.000D+00 0.000D+00 0.100D+01
 Coeff:      0.353D-02 0.178D+00 0.146D+00 0.101D+00 0.572D+00
 Gap=     0.136 Goal=   None    Shift=    0.000
 RMSDP=3.72D-04 MaxDP=2.13D-02 DE=-2.86D-01 OVMax= 3.93D-02

 Cycle   6  Pass 0  IDiag  1:
 E= -321.878053982052     Delta-E=       -0.001833774366 Rises=F Damp=F
 DIIS: error= 4.83D-03 at cycle   6 NSaved=   6.
 NSaved= 6 IEnMin= 6 EnMin= -321.878053982052     IErMin= 6 ErrMin= 4.83D-03
 ErrMax= 4.83D-03  0.00D+00 EMaxC= 1.00D-01 BMatC= 4.54D-03 BMatP= 8.49D-03
 IDIUse=3 WtCom= 9.52D-01 WtEn= 4.83D-02
 Coeff-Com: -0.705D-01 0.103D+00 0.462D-02 0.169D-01 0.389D+00 0.557D+00
 Coeff-En:   0.000D+00 0.000D+00 0.000D+00 0.000D+00 0.398D+00 0.602D+00
 Coeff:     -0.671D-01 0.980D-01 0.439D-02 0.161D-01 0.390D+00 0.559D+00
 Gap=     0.130 Goal=   None    Shift=    0.000
 RMSDP=1.97D-04 MaxDP=7.97D-03 DE=-1.83D-03 OVMax= 2.62D-02

 Cycle   7  Pass 0  IDiag  1:
 E= -321.882689607009     Delta-E=       -0.004635624957 Rises=F Damp=F
 DIIS: error= 2.40D-03 at cycle   7 NSaved=   7.
 NSaved= 7 IEnMin= 7 EnMin= -321.882689607009     IErMin= 7 ErrMin= 2.40D-03
 ErrMax= 2.40D-03  0.00D+00 EMaxC= 1.00D-01 BMatC= 6.77D-04 BMatP= 4.54D-03
 IDIUse=3 WtCom= 9.76D-01 WtEn= 2.40D-02
 Coeff-Com: -0.423D-01 0.493D-01-0.131D-01 0.147D-01 0.171D+00 0.223D+00
 Coeff-Com:  0.598D+00
 Coeff-En:   0.000D+00 0.000D+00 0.000D+00 0.000D+00 0.000D+00 0.000D+00
 Coeff-En:   0.100D+01
 Coeff:     -0.412D-01 0.481D-01-0.128D-01 0.143D-01 0.167D+00 0.217D+00
 Coeff:      0.607D+00
 Gap=     0.126 Goal=   None    Shift=    0.000
 RMSDP=6.71D-05 MaxDP=2.38D-03 DE=-4.64D-03 OVMax= 8.53D-03

 Cycle   8  Pass 0  IDiag  1:
 E= -321.883223861324     Delta-E=       -0.000534254314 Rises=F Damp=F
 DIIS: error= 1.18D-03 at cycle   8 NSaved=   8.
 NSaved= 8 IEnMin= 8 EnMin= -321.883223861324     IErMin= 8 ErrMin= 1.18D-03
 ErrMax= 1.18D-03  0.00D+00 EMaxC= 1.00D-01 BMatC= 1.96D-04 BMatP= 6.77D-04
 IDIUse=3 WtCom= 9.88D-01 WtEn= 1.18D-02
 Coeff-Com: -0.218D-01 0.233D-01-0.115D-01 0.112D-01 0.586D-01 0.458D-01
 Coeff-Com:  0.357D+00 0.538D+00
 Coeff-En:   0.000D+00 0.000D+00 0.000D+00 0.000D+00 0.000D+00 0.000D+00
 Coeff-En:   0.000D+00 0.100D+01
 Coeff:     -0.216D-01 0.230D-01-0.114D-01 0.110D-01 0.579D-01 0.453D-01
 Coeff:      0.353D+00 0.543D+00
 Gap=     0.124 Goal=   None    Shift=    0.000
 RMSDP=3.97D-05 MaxDP=1.04D-03 DE=-5.34D-04 OVMax= 6.35D-03

 Cycle   9  Pass 0  IDiag  1:
 E= -321.883414681046     Delta-E=       -0.000190819722 Rises=F Damp=F
 DIIS: error= 6.05D-04 at cycle   9 NSaved=   9.
 NSaved= 9 IEnMin= 9 EnMin= -321.883414681046     IErMin= 9 ErrMin= 6.05D-04
 ErrMax= 6.05D-04  0.00D+00 EMaxC= 1.00D-01 BMatC= 5.70D-05 BMatP= 1.96D-04
 IDIUse=3 WtCom= 9.94D-01 WtEn= 6.05D-03
 Coeff-Com: -0.210D-02-0.184D-03-0.498D-02 0.490D-02-0.221D-01-0.647D-01
 Coeff-Com: -0.469D-01 0.503D+00 0.633D+00
 Coeff-En:   0.000D+00 0.000D+00 0.000D+00 0.000D+00 0.000D+00 0.000D+00
 Coeff-En:   0.000D+00 0.000D+00 0.100D+01
 Coeff:     -0.208D-02-0.183D-03-0.495D-02 0.487D-02-0.219D-01-0.643D-01
 Coeff:     -0.466D-01 0.500D+00 0.635D+00
 Gap=     0.123 Goal=   None    Shift=    0.000
 RMSDP=3.04D-05 MaxDP=1.20D-03 DE=-1.91D-04 OVMax= 3.67D-03

 Cycle  10  Pass 0  IDiag  1:
 E= -321.883463365976     Delta-E=       -0.000048684930 Rises=F Damp=F
 DIIS: error= 9.57D-05 at cycle  10 NSaved=  10.
 NSaved=10 IEnMin=10 EnMin= -321.883463365976     IErMin=10 ErrMin= 9.57D-05
 ErrMax= 9.57D-05  0.00D+00 EMaxC= 1.00D-01 BMatC= 1.75D-06 BMatP= 5.70D-05
 IDIUse=1 WtCom= 1.00D+00 WtEn= 0.00D+00
 Coeff-Com: -0.383D-03-0.797D-03-0.245D-02 0.267D-02-0.154D-01-0.403D-01
 Coeff-Com: -0.505D-01 0.281D+00 0.412D+00 0.415D+00
 Coeff:     -0.383D-03-0.797D-03-0.245D-02 0.267D-02-0.154D-01-0.403D-01
 Coeff:     -0.505D-01 0.281D+00 0.412D+00 0.415D+00
 Gap=     0.123 Goal=   None    Shift=    0.000
 RMSDP=3.11D-06 MaxDP=2.28D-04 DE=-4.87D-05 OVMax= 3.87D-04

 Initial convergence to 1.0D-05 achieved.  Increase integral accuracy.
 Cycle  11  Pass 1  IDiag  1:
 E= -321.883480686028     Delta-E=       -0.000017320053 Rises=F Damp=F
 DIIS: error= 3.64D-05 at cycle   1 NSaved=   1.
 NSaved= 1 IEnMin= 1 EnMin= -321.883480686028     IErMin= 1 ErrMin= 3.64D-05
 ErrMax= 3.64D-05  0.00D+00 EMaxC= 1.00D-01 BMatC= 2.81D-07 BMatP= 2.81D-07
 IDIUse=1 WtCom= 1.00D+00 WtEn= 0.00D+00
 Coeff-Com:  0.100D+01
 Coeff:      0.100D+01
 Gap=     0.123 Goal=   None    Shift=    0.000
 RMSDP=3.11D-06 MaxDP=2.28D-04 DE=-1.73D-05 OVMax= 4.44D-04

 Cycle  12  Pass 1  IDiag  1:
 E= -321.883480644458     Delta-E=        0.000000041571 Rises=F Damp=F
 DIIS: error= 3.62D-05 at cycle   2 NSaved=   2.
 NSaved= 2 IEnMin= 1 EnMin= -321.883480686028     IErMin= 2 ErrMin= 3.62D-05
 ErrMax= 3.62D-05  0.00D+00 EMaxC= 1.00D-01 BMatC= 3.88D-07 BMatP= 2.81D-07
 IDIUse=1 WtCom= 1.00D+00 WtEn= 0.00D+00
 Coeff-Com:  0.553D+00 0.447D+00
 Coeff:      0.553D+00 0.447D+00
 Gap=     0.123 Goal=   None    Shift=    0.000
 RMSDP=3.10D-06 MaxDP=1.18D-04 DE= 4.16D-08 OVMax= 4.65D-04

 Cycle  13  Pass 1  IDiag  1:
 E= -321.883480811801     Delta-E=       -0.000000167344 Rises=F Damp=F
 DIIS: error= 3.75D-05 at cycle   3 NSaved=   3.
 NSaved= 3 IEnMin= 3 EnMin= -321.883480811801     IErMin= 2 ErrMin= 3.62D-05
 ErrMax= 3.75D-05  0.00D+00 EMaxC= 1.00D-01 BMatC= 2.18D-07 BMatP= 2.81D-07
 IDIUse=1 WtCom= 1.00D+00 WtEn= 0.00D+00
 Coeff-Com:  0.171D+00 0.388D+00 0.441D+00
 Coeff:      0.171D+00 0.388D+00 0.441D+00
 Gap=     0.123 Goal=   None    Shift=    0.000
 RMSDP=2.14D-06 MaxDP=9.70D-05 DE=-1.67D-07 OVMax= 3.95D-04

 Cycle  14  Pass 1  IDiag  1:
 E= -321.883480964427     Delta-E=       -0.000000152626 Rises=F Damp=F
 DIIS: error= 1.95D-05 at cycle   4 NSaved=   4.
 NSaved= 4 IEnMin= 4 EnMin= -321.883480964427     IErMin= 4 ErrMin= 1.95D-05
 ErrMax= 1.95D-05  0.00D+00 EMaxC= 1.00D-01 BMatC= 7.90D-08 BMatP= 2.18D-07
 IDIUse=1 WtCom= 1.00D+00 WtEn= 0.00D+00
 Coeff-Com:  0.510D-02 0.242D+00 0.390D+00 0.363D+00
 Coeff:      0.510D-02 0.242D+00 0.390D+00 0.363D+00
 Gap=     0.123 Goal=   None    Shift=    0.000
 RMSDP=7.73D-07 MaxDP=3.94D-05 DE=-1.53D-07 OVMax= 1.47D-04

 Cycle  15  Pass 1  IDiag  1:
 E= -321.883481031509     Delta-E=       -0.000000067082 Rises=F Damp=F
 DIIS: error= 2.08D-06 at cycle   5 NSaved=   5.
 NSaved= 5 IEnMin= 5 EnMin= -321.883481031509     IErMin= 5 ErrMin= 2.08D-06
 ErrMax= 2.08D-06  0.00D+00 EMaxC= 1.00D-01 BMatC= 5.73D-10 BMatP= 7.90D-08
 IDIUse=1 WtCom= 1.00D+00 WtEn= 0.00D+00
 Coeff-Com: -0.164D-02 0.117D+00 0.186D+00 0.192D+00 0.507D+00
 Coeff:     -0.164D-02 0.117D+00 0.186D+00 0.192D+00 0.507D+00
 Gap=     0.123 Goal=   None    Shift=    0.000
 RMSDP=7.61D-08 MaxDP=3.97D-06 DE=-6.71D-08 OVMax= 1.11D-05

 Cycle  16  Pass 1  IDiag  1:
 E= -321.883481031864     Delta-E=       -0.000000000355 Rises=F Damp=F
 DIIS: error= 1.12D-06 at cycle   6 NSaved=   6.
 NSaved= 6 IEnMin= 6 EnMin= -321.883481031864     IErMin= 6 ErrMin= 1.12D-06
 ErrMax= 1.12D-06  0.00D+00 EMaxC= 1.00D-01 BMatC= 1.76D-10 BMatP= 5.73D-10
 IDIUse=1 WtCom= 1.00D+00 WtEn= 0.00D+00
 Coeff-Com: -0.158D-02 0.625D-01 0.972D-01 0.107D+00 0.373D+00 0.362D+00
 Coeff:     -0.158D-02 0.625D-01 0.972D-01 0.107D+00 0.373D+00 0.362D+00
 Gap=     0.123 Goal=   None    Shift=    0.000
 RMSDP=4.00D-08 MaxDP=1.35D-06 DE=-3.55D-10 OVMax= 5.93D-06

 Cycle  17  Pass 1  IDiag  1:
 E= -321.883481032029     Delta-E=       -0.000000000165 Rises=F Damp=F
 DIIS: error= 1.92D-07 at cycle   7 NSaved=   7.
 NSaved= 7 IEnMin= 7 EnMin= -321.883481032029     IErMin= 7 ErrMin= 1.92D-07
 ErrMax= 1.92D-07  0.00D+00 EMaxC= 1.00D-01 BMatC= 1.03D-11 BMatP= 1.76D-10
 IDIUse=1 WtCom= 1.00D+00 WtEn= 0.00D+00
 Coeff-Com: -0.744D-03 0.276D-01 0.426D-01 0.474D-01 0.188D+00 0.241D+00
 Coeff-Com:  0.454D+00
 Coeff:     -0.744D-03 0.276D-01 0.426D-01 0.474D-01 0.188D+00 0.241D+00
 Coeff:      0.454D+00
 Gap=     0.123 Goal=   None    Shift=    0.000
 RMSDP=9.94D-09 MaxDP=3.02D-07 DE=-1.65D-10 OVMax= 1.06D-06

 SCF Done:  E(RS-VWN) =  -321.883481032     A.U. after   17 cycles
            NFock= 17  Conv=0.99D-08     -V/T= 2.0043
 KE= 3.204955414512D+02 PE=-1.299784851043D+03 EE= 3.841253897191D+02
 Leave Link  502 at Fri Aug 27 21:08:51 2021, MaxMem= 17179869184 cpu:       242.7
 (Enter /public3/home/sc51754/softwares/g09e01/l601.exe)
 Copying SCF densities to generalized density rwf, IOpCl= 0 IROHF=0.

 **********************************************************************

            Population analysis using the SCF density.

 **********************************************************************

 Orbital symmetries:
       Occupied  (A') (A') (A") (A') (A') (A") (A') (A') (A') (A')
                 (A") (A") (A') (A') (A") (A') (A") (A') (A') (A')
                 (A") (A') (A") (A') (A")
       Virtual   (A") (A') (A') (A") (A') (A") (A') (A') (A') (A')
                 (A') (A") (A') (A") (A") (A") (A') (A') (A") (A")
                 (A') (A') (A") (A') (A') (A') (A") (A') (A") (A')
                 (A') (A') (A") (A') (A') (A') (A") (A") (A") (A")
                 (A') (A') (A') (A") (A') (A") (A') (A") (A") (A')
                 (A') (A") (A') (A") (A') (A') (A') (A") (A') (A')
                 (A') (A") (A') (A") (A') (A") (A') (A') (A") (A")
                 (A') (A") (A') (A") (A") (A') (A') (A") (A") (A')
                 (A') (A') (A") (A") (A') (A') (A') (A') (A") (A')
                 (A") (A") (A') (A') (A") (A") (A') (A') (A") (A')
                 (A") (A') (A") (A") (A') (A") (A') (A') (A") (A')
                 (A') (A") (A') (A") (A") (A') (A') (A') (A") (A")
                 (A") (A') (A") (A') (A') (A") (A') (A") (A') (A')
                 (A") (A") (A') (A") (A') (A') (A') (A") (A') (A')
                 (A") (A") (A") (A') (A") (A') (A') (A') (A') (A")
                 (A") (A') (A') (A') (A") (A') (A") (A") (A") (A')
                 (A') (A') (A") (A") (A") (A') (A") (A') (A") (A")
                 (A') (A') (A") (A') (A') (A") (A') (A") (A') (A")
                 (A') (A') (A') (A") (A') (A") (A') (A") (A') (A")
                 (A") (A") (A') (A') (A") (A') (A') (A') (A") (A")
                 (A') (A') (A') (A") (A") (A") (A') (A") (A') (A')
                 (A') (A") (A') (A") (A") (A') (A") (A') (A") (A')
                 (A') (A") (A") (A') (A") (A") (A') (A") (A') (A")
                 (A') (A') (A") (A') (A') (A") (A') (A") (A") (A')
                 (A') (A") (A') (A') (A") (A') (A') (A") (A') (A')
                 (A") (A') (A") (A') (A')
 The electronic state is 1-A'.
 Alpha  occ. eigenvalues --  -18.55831 -13.95153  -9.86189  -9.86184  -9.85846
 Alpha  occ. eigenvalues --   -9.80513  -9.80510  -0.93779  -0.92449  -0.73878
 Alpha  occ. eigenvalues --   -0.73762  -0.61364  -0.58624  -0.56351  -0.48397
 Alpha  occ. eigenvalues --   -0.44908  -0.43283  -0.42247  -0.41976  -0.35887
 Alpha  occ. eigenvalues --   -0.35816  -0.35400  -0.28858  -0.23028  -0.20751
 Alpha virt. eigenvalues --   -0.08482  -0.08317  -0.04918  -0.00068   0.00972
 Alpha virt. eigenvalues --    0.04272   0.04379   0.05330   0.07656   0.10575
 Alpha virt. eigenvalues --    0.10610   0.10842   0.11398   0.14156   0.14406
 Alpha virt. eigenvalues --    0.17230   0.17573   0.18107   0.22518   0.22987
 Alpha virt. eigenvalues --    0.23216   0.24247   0.24415   0.24944   0.25460
 Alpha virt. eigenvalues --    0.25833   0.28451   0.29217   0.30243   0.34334
 Alpha virt. eigenvalues --    0.37161   0.37850   0.38919   0.40003   0.42266
 Alpha virt. eigenvalues --    0.43885   0.44205   0.48845   0.49228   0.51220
 Alpha virt. eigenvalues --    0.51620   0.53589   0.57295   0.59395   0.62814
 Alpha virt. eigenvalues --    0.65104   0.65165   0.67523   0.70176   0.72889
 Alpha virt. eigenvalues --    0.73040   0.76973   0.81787   0.82218   0.82500
 Alpha virt. eigenvalues --    0.86809   0.90047   0.90174   0.91830   0.97865
 Alpha virt. eigenvalues --    1.01954   1.02523   1.03187   1.03243   1.04939
 Alpha virt. eigenvalues --    1.09406   1.10708   1.10970   1.12398   1.13414
 Alpha virt. eigenvalues --    1.14831   1.16920   1.16990   1.18663   1.23723
 Alpha virt. eigenvalues --    1.24553   1.24618   1.32446   1.33485   1.34837
 Alpha virt. eigenvalues --    1.36159   1.37090   1.37689   1.37736   1.45571
 Alpha virt. eigenvalues --    1.46536   1.49650   1.53462   1.55223   1.55767
 Alpha virt. eigenvalues --    1.56905   1.59626   1.64794   1.66856   1.67052
 Alpha virt. eigenvalues --    1.67570   1.71823   1.71911   1.73630   1.79262
 Alpha virt. eigenvalues --    1.80695   1.84261   1.85860   1.90689   1.92608
 Alpha virt. eigenvalues --    1.92936   2.00079   2.01677   2.06136   2.08087
 Alpha virt. eigenvalues --    2.09260   2.12707   2.14442   2.16165   2.28883
 Alpha virt. eigenvalues --    2.29635   2.38149   2.40374   2.53007   2.67881
 Alpha virt. eigenvalues --    2.75477   2.80016   2.82899   2.83698   3.00643
 Alpha virt. eigenvalues --    3.05416   3.08311   3.09680   3.12738   3.12815
 Alpha virt. eigenvalues --    3.15235   3.18754   3.21073   3.24008   3.24587
 Alpha virt. eigenvalues --    3.32448   3.34739   3.39118   3.41417   3.43368
 Alpha virt. eigenvalues --    3.47190   3.51724   3.52184   3.53585   3.54668
 Alpha virt. eigenvalues --    3.56212   3.58194   3.65082   3.70659   3.77150
 Alpha virt. eigenvalues --    3.83540   3.83669   3.84161   3.85032   3.86524
 Alpha virt. eigenvalues --    3.89365   3.90818   3.91361   3.96019   3.96676
 Alpha virt. eigenvalues --    3.97226   3.99698   3.99902   4.02934   4.06130
 Alpha virt. eigenvalues --    4.06995   4.07702   4.08475   4.10913   4.11161
 Alpha virt. eigenvalues --    4.11778   4.14976   4.17028   4.17770   4.18839
 Alpha virt. eigenvalues --    4.20778   4.21256   4.22351   4.26074   4.27247
 Alpha virt. eigenvalues --    4.27524   4.29928   4.33719   4.34314   4.35701
 Alpha virt. eigenvalues --    4.36360   4.41191   4.41405   4.42523   4.44745
 Alpha virt. eigenvalues --    4.49733   4.49882   4.49922   4.54790   4.54954
 Alpha virt. eigenvalues --    4.59884   4.64919   4.65806   4.65884   4.67063
 Alpha virt. eigenvalues --    4.75243   4.82050   4.82411   4.82827   4.84206
 Alpha virt. eigenvalues --    4.87198   4.95630   4.96995   4.99619   5.06928
 Alpha virt. eigenvalues --    5.07389   5.12278   5.14822   5.15760   5.17530
 Alpha virt. eigenvalues --    5.21407   5.22487   5.30736   5.31916   5.32434
 Alpha virt. eigenvalues --    5.34712   5.37131   5.43839   5.48047   5.48564
 Alpha virt. eigenvalues --    5.48611   5.55577   5.57993   5.60456   5.64785
 Alpha virt. eigenvalues --    5.66192   5.77397   5.79718   5.82007   5.83603
 Alpha virt. eigenvalues --    5.95576   5.97079   6.02197   6.04134   6.11788
 Alpha virt. eigenvalues --    6.23682   6.37623   6.38501   6.39145   6.70123
 Alpha virt. eigenvalues --    6.75948   6.81757   7.08412   9.35170  12.26027
 Alpha virt. eigenvalues --   12.43573  15.16322  16.85153  18.28577  22.47522
          Condensed to atoms (all electrons):
               1          2          3          4          5          6
     1  C    4.868950   0.470629  -0.036556  -0.034509  -0.082642   0.356597
     2  C    0.470629   5.187751   0.349778  -0.039688  -0.034509  -0.052246
     3  C   -0.036556   0.349778   4.564714   0.349778  -0.036556  -0.012449
     4  C   -0.034509  -0.039688   0.349778   5.187751   0.470629  -0.052246
     5  C   -0.082642  -0.034509  -0.036556   0.470629   4.868950   0.356597
     6  N    0.356597  -0.052246  -0.012449  -0.052246   0.356597   6.321656
     7  H    0.394857  -0.019133   0.004521  -0.007881   0.007281  -0.031420
     8  H   -0.029891   0.423176  -0.036550   0.014052  -0.001240   0.004530
     9  H   -0.001240   0.014052  -0.036550   0.423176  -0.029891   0.004530
    10  H    0.007281  -0.007881   0.004521  -0.019133   0.394857  -0.031420
    11  O    0.009874  -0.080483   0.549637  -0.080483   0.009874   0.000918
    12  H   -0.031411   0.009597  -0.001694   0.009597  -0.031411   0.411362
               7          8          9         10         11         12
     1  C    0.394857  -0.029891  -0.001240   0.007281   0.009874  -0.031411
     2  C   -0.019133   0.423176   0.014052  -0.007881  -0.080483   0.009597
     3  C    0.004521  -0.036550  -0.036550   0.004521   0.549637  -0.001694
     4  C   -0.007881   0.014052   0.423176  -0.019133  -0.080483   0.009597
     5  C    0.007281  -0.001240  -0.029891   0.394857   0.009874  -0.031411
     6  N   -0.031420   0.004530   0.004530  -0.031420   0.000918   0.411362
     7  H    0.563716  -0.007820   0.000278  -0.000894  -0.000948  -0.009704
     8  H   -0.007820   0.529645   0.000117   0.000278   0.007564  -0.000380
     9  H    0.000278   0.000117   0.529645  -0.007820   0.007564  -0.000380
    10  H   -0.000894   0.000278  -0.007820   0.563716  -0.000948  -0.009704
    11  O   -0.000948   0.007564   0.007564  -0.000948   7.990950   0.000096
    12  H   -0.009704  -0.000380  -0.000380  -0.009704   0.000096   0.482783
 Mulliken charges:
               1
     1  C    0.108062
     2  C   -0.221044
     3  C    0.337407
     4  C   -0.221044
     5  C    0.108062
     6  N   -0.276409
     7  H    0.107147
     8  H    0.096518
     9  H    0.096518
    10  H    0.107147
    11  O   -0.413614
    12  H    0.171249
 Sum of Mulliken charges =  -0.00000
 Mulliken charges with hydrogens summed into heavy atoms:
               1
     1  C    0.215209
     2  C   -0.124526
     3  C    0.337407
     4  C   -0.124526
     5  C    0.215209
     6  N   -0.105160
    11  O   -0.413614
 Electronic spatial extent (au):  <R**2>=            641.2577
 Charge=             -0.0000 electrons
 Dipole moment (field-independent basis, Debye):
    X=              0.0013    Y=              6.9361    Z=              0.0000  Tot=              6.9361
 Quadrupole moment (field-independent basis, Debye-Ang):
   XX=            -43.5262   YY=            -42.3345   ZZ=            -34.4991
   XY=             -0.0054   XZ=              0.0000   YZ=              0.0000
 Traceless Quadrupole moment (field-independent basis, Debye-Ang):
   XX=             -3.4063   YY=             -2.2146   ZZ=              5.6208
   XY=             -0.0054   XZ=              0.0000   YZ=              0.0000
 Octapole moment (field-independent basis, Debye-Ang**2):
  XXX=             -0.0038  YYY=             57.9016  ZZZ=              0.0000  XYY=              0.0021
  XXY=             -2.2124  XXZ=              0.0000  XZZ=              0.0094  YZZ=              3.6209
  YYZ=             -0.0000  XYZ=              0.0000
 Hexadecapole moment (field-independent basis, Debye-Ang**3):
 XXXX=            -48.5829 YYYY=           -497.0438 ZZZZ=           -265.5319 XXXY=             -0.0324
 XXXZ=             -0.0000 YYYX=             -0.0746 YYYZ=             -0.0000 ZZZX=             -0.0000
 ZZZY=              0.0000 XXYY=            -93.8997 XXZZ=            -65.7016 YYZZ=           -118.3385
 XXYZ=             -0.0000 YYXZ=              0.0000 ZZXY=             -0.0067
 N-N= 2.732804388411D+02 E-N=-1.299784811992D+03  KE= 3.204955414512D+02
 Symmetry A'   KE= 2.351581242432D+02
 Symmetry A"   KE= 8.533741720795D+01
 No NMR shielding tensors so no spin-rotation constants.
 Leave Link  601 at Fri Aug 27 21:08:52 2021, MaxMem= 17179869184 cpu:        39.0
 (Enter /public3/home/sc51754/softwares/g09e01/l701.exe)
 Compute integral first derivatives.
 ... and contract with generalized density number  0.
 Leave Link  701 at Fri Aug 27 21:08:53 2021, MaxMem= 17179869184 cpu:        75.5
 (Enter /public3/home/sc51754/softwares/g09e01/l702.exe)
 L702 exits ... SP integral derivatives will be done elsewhere.
 Leave Link  702 at Fri Aug 27 21:08:53 2021, MaxMem= 17179869184 cpu:         0.5
 (Enter /public3/home/sc51754/softwares/g09e01/l703.exe)
 Compute integral first derivatives, UseDBF=F ICtDFT=           0.
 Integral derivatives from FoFJK, PRISM(SPDF).
 Calling FoFJK, ICntrl=      2527 FMM=F ISym2X=1 I1Cent= 0 IOpClX= 0 NMat=1 NMatS=1 NMatT=0.
 FoFJK:  IHMeth= 1 ICntrl=    2527 DoSepK=F KAlg= 0 I1Cent=   0 FoldK=F
 IRaf=         0 NMat=   1 IRICut=       1 DoRegI=T DoRafI=F ISym2E= 1.
 FoFCou: FMM=F IPFlag=           0 FMFlag=      100000 FMFlg1=         800
         NFxFlg=           0 DoJE=F BraDBF=F KetDBF=F FulRan=T
         wScrn=  0.000000 ICntrl=    2527 IOpCl=  0 I1Cent=           0 NGrid=           0
         NMat0=    1 NMatS0=      1 NMatT0=    0 NMatD0=    1 NMtDS0=    0 NMtDT0=    0
 Petite list used in FoFCou.
 Leave Link  703 at Fri Aug 27 21:08:55 2021, MaxMem= 17179869184 cpu:        89.4
 (Enter /public3/home/sc51754/softwares/g09e01/l716.exe)
 Dipole        = 5.23363129D-04 2.72887544D+00 2.66289365D-15
 ***** Axes restored to original set *****
 -------------------------------------------------------------------
 Center     Atomic                   Forces (Hartrees/Bohr)
 Number     Number              X              Y              Z
 -------------------------------------------------------------------
      1        6          -0.000001613    0.003761104   -0.016846790
      2        6           0.000003623   -0.004527715   -0.015215895
      3        6          -0.000018166   -0.003780198   -0.000000000
      4        6           0.000003623   -0.004527715    0.015215895
      5        6          -0.000001613    0.003761104    0.016846790
      6        7          -0.000005241    0.021574227    0.000000000
      7        1           0.000011045   -0.002333890    0.003457743
      8        1           0.000004316    0.002408272    0.003629781
      9        1           0.000004316    0.002408272   -0.003629781
     10        1           0.000011045   -0.002333890   -0.003457743
     11        8          -0.000001120   -0.010861440    0.000000000
     12        1          -0.000010215   -0.005548131   -0.000000000
 -------------------------------------------------------------------
 Cartesian Forces:  Max     0.021574227 RMS     0.007073453
 Leave Link  716 at Fri Aug 27 21:08:55 2021, MaxMem= 17179869184 cpu:         1.4
 (Enter /public3/home/sc51754/softwares/g09e01/l103.exe)

 GradGradGradGradGradGradGradGradGradGradGradGradGradGradGradGradGradGrad
 Berny optimization.
 FormGI is forming the generalized inverse of G from B-inverse, IUseBI=4.
 Internal  Forces:  Max     0.015490263 RMS     0.004835368
 Search for a local minimum.
 Step number   1 out of a maximum of   64
 All quantities printed in internal units (Hartrees-Bohrs-Radians)
 RMS Force = .48354D-02 SwitMx=.10000D-02 MixMth= 1
 Mixed Optimization -- RFO/linear search
 Second derivative matrix not updated -- first step.
 ITU=  0
     Eigenvalues ---    0.01179   0.01465   0.01838   0.01956   0.02032
     Eigenvalues ---    0.02219   0.02234   0.02399   0.02441   0.16000
     Eigenvalues ---    0.16000   0.16000   0.16000   0.16000   0.22000
     Eigenvalues ---    0.22000   0.23391   0.25000   0.34645   0.35229
     Eigenvalues ---    0.35431   0.35431   0.35528   0.35528   0.46397
     Eigenvalues ---    0.47941   0.48075   0.51510   0.53792   0.89549
 RFO step:  Lambda=-2.73368977D-03 EMin= 1.17876314D-02
 Linear search not attempted -- first point.
 Iteration  1 RMS(Cart)=  0.01267711 RMS(Int)=  0.00000827
 Iteration  2 RMS(Cart)=  0.00000949 RMS(Int)=  0.00000186
 Iteration  3 RMS(Cart)=  0.00000000 RMS(Int)=  0.00000186
 ITry= 1 IFail=0 DXMaxC= 4.04D-02 DCOld= 1.00D+10 DXMaxT= 3.00D-01 DXLimC= 3.00D+00 Rises=F
 ClnCor:  largest displacement from symmetrization is 1.34D-12 for atom    10.
 Variable       Old X    -DE/DX   Delta X   Delta X   Delta X     New X
                                 (Linear)    (Quad)   (Total)
    R1        2.56220  -0.00943   0.00000  -0.01747  -0.01747   2.54474
    R2        2.59705  -0.01549   0.00000  -0.03144  -0.03144   2.56561
    R3        2.04981   0.00417   0.00000   0.01168   0.01168   2.06149
    R4        2.77562  -0.01381   0.00000  -0.03722  -0.03722   2.73840
    R5        2.04825   0.00434   0.00000   0.01212   0.01212   2.06038
    R6        2.77562  -0.01381   0.00000  -0.03722  -0.03722   2.73840
    R7        2.33142  -0.01086   0.00000  -0.01209  -0.01209   2.31932
    R8        2.56220  -0.00943   0.00000  -0.01747  -0.01747   2.54474
    R9        2.04825   0.00434   0.00000   0.01212   0.01212   2.06038
   R10        2.59705  -0.01549   0.00000  -0.03144  -0.03144   2.56561
   R11        2.04981   0.00417   0.00000   0.01168   0.01168   2.06149
   R12        1.90386   0.00555   0.00000   0.01189   0.01189   1.91575
    A1        2.11471   0.00011   0.00000  -0.00112  -0.00113   2.11358
    A2        2.15142  -0.00011   0.00000   0.00023   0.00023   2.15165
    A3        2.01706  -0.00000   0.00000   0.00089   0.00089   2.01795
    A4        2.12519  -0.00023   0.00000   0.00055   0.00056   2.12575
    A5        2.09805   0.00049   0.00000   0.00203   0.00203   2.10008
    A6        2.05994  -0.00026   0.00000  -0.00258  -0.00258   2.05736
    A7        1.98154  -0.00053   0.00000   0.00100   0.00101   1.98254
    A8        2.15082   0.00026   0.00000  -0.00050  -0.00050   2.15032
    A9        2.15082   0.00026   0.00000  -0.00050  -0.00050   2.15032
   A10        2.12519  -0.00023   0.00000   0.00055   0.00056   2.12575
   A11        2.05994  -0.00026   0.00000  -0.00258  -0.00258   2.05736
   A12        2.09805   0.00049   0.00000   0.00203   0.00203   2.10008
   A13        2.11471   0.00011   0.00000  -0.00112  -0.00113   2.11358
   A14        2.15142  -0.00011   0.00000   0.00023   0.00023   2.15165
   A15        2.01706  -0.00000   0.00000   0.00089   0.00089   2.01795
   A16        2.10503   0.00076   0.00000   0.00014   0.00013   2.10516
   A17        2.08908  -0.00038   0.00000  -0.00007  -0.00007   2.08901
   A18        2.08908  -0.00038   0.00000  -0.00007  -0.00007   2.08901
    D1       -0.00015   0.00000   0.00000   0.00006   0.00006  -0.00009
    D2        3.14133   0.00000   0.00000   0.00016   0.00016   3.14150
    D3       -3.14143  -0.00000   0.00000  -0.00013  -0.00013  -3.14156
    D4        0.00006  -0.00000   0.00000  -0.00003  -0.00003   0.00003
    D5       -0.00035   0.00001   0.00000   0.00029   0.00029  -0.00006
    D6        3.14089   0.00000   0.00000   0.00015   0.00015   3.14104
    D7        3.14095   0.00001   0.00000   0.00047   0.00047   3.14142
    D8       -0.00100   0.00001   0.00000   0.00033   0.00033  -0.00067
    D9        0.00059  -0.00001   0.00000  -0.00037  -0.00037   0.00022
   D10       -3.14124   0.00000   0.00000   0.00012   0.00012  -3.14111
   D11       -3.14090  -0.00001   0.00000  -0.00047  -0.00047  -3.14137
   D12        0.00046  -0.00000   0.00000   0.00002   0.00002   0.00048
   D13       -0.00059   0.00001   0.00000   0.00037   0.00037  -0.00022
   D14        3.14090   0.00001   0.00000   0.00047   0.00047   3.14137
   D15        3.14124  -0.00000   0.00000  -0.00012  -0.00012   3.14111
   D16       -0.00046   0.00000   0.00000  -0.00002  -0.00002  -0.00048
   D17        0.00015  -0.00000   0.00000  -0.00006  -0.00006   0.00009
   D18        3.14143   0.00000   0.00000   0.00013   0.00013   3.14156
   D19       -3.14133  -0.00000   0.00000  -0.00016  -0.00016  -3.14150
   D20       -0.00006   0.00000   0.00000   0.00003   0.00003  -0.00003
   D21        0.00035  -0.00001   0.00000  -0.00029  -0.00029   0.00006
   D22       -3.14089  -0.00000   0.00000  -0.00015  -0.00015  -3.14104
   D23       -3.14095  -0.00001   0.00000  -0.00047  -0.00047  -3.14142
   D24        0.00100  -0.00001   0.00000  -0.00033  -0.00033   0.00067
         Item               Value     Threshold  Converged?
 Maximum Force            0.015490     0.000450     NO 
 RMS     Force            0.004835     0.000300     NO 
 Maximum Displacement     0.040392     0.001800     NO 
 RMS     Displacement     0.012680     0.001200     NO 
 Predicted change in Energy=-1.375352D-03
 Lowest energy point so far.  Saving SCF results.
 GradGradGradGradGradGradGradGradGradGradGradGradGradGradGradGradGradGrad

 Leave Link  103 at Fri Aug 27 21:08:56 2021, MaxMem= 17179869184 cpu:        39.5
 (Enter /public3/home/sc51754/softwares/g09e01/l202.exe)
                          Input orientation:                          
 ---------------------------------------------------------------------
 Center     Atomic      Atomic             Coordinates (Angstroms)
 Number     Number       Type             X           Y           Z
 ---------------------------------------------------------------------
      1          6           0       -0.000208   -1.043234    1.179409
      2          6           0       -0.000214    0.302976    1.212494
      3          6           0       -0.000067    1.096540    0.000000
      4          6           0       -0.000214    0.302976   -1.212494
      5          6           0       -0.000208   -1.043234   -1.179409
      6          7           0       -0.000173   -1.715727   -0.000000
      7          1           0       -0.000348   -1.664074    2.076408
      8          1           0       -0.000331    0.830198    2.166854
      9          1           0       -0.000331    0.830198   -2.166854
     10          1           0       -0.000348   -1.664074   -2.076408
     11          8           0        0.000423    2.323873    0.000000
     12          1           0        0.000314   -2.729498   -0.000000
 ---------------------------------------------------------------------
                    Distance matrix (angstroms):
                    1          2          3          4          5
     1  C    0.000000
     2  C    1.346616   0.000000
     3  C    2.443284   1.449099   0.000000
     4  C    2.744719   2.424988   1.449099   0.000000
     5  C    2.358817   2.744719   2.443284   1.346616   0.000000
     6  N    1.357664   2.354847   2.812267   2.354847   1.357664
     7  H    1.090894   2.148403   3.454340   3.832253   3.314481
     8  H    2.117733   1.090305   2.183162   3.420228   3.834999
     9  H    3.834999   3.420228   2.183162   1.090305   2.117733
    10  H    3.314481   3.832253   3.454340   2.148403   1.090894
    11  O    3.567691   2.356728   1.227333   2.356728   3.567691
    12  H    2.057788   3.265890   3.826038   3.265890   2.057788
                    6          7          8          9         10
     6  N    0.000000
     7  H    2.077050   0.000000
     8  H    3.343200   2.495912   0.000000
     9  H    3.343200   4.922059   4.333708   0.000000
    10  H    2.077050   4.152816   4.922059   2.495912   0.000000
    11  O    4.039600   4.496131   2.631791   2.631791   4.496131
    12  H    1.013771   2.333794   4.167336   4.167336   2.333794
                   11         12
    11  O    0.000000
    12  H    5.053371   0.000000
 Stoichiometry    C5H5NO
 Framework group  CS[SG(CHNO),X(C4H4)]
 Deg. of freedom    17
 Full point group                 CS      NOp   2
 RotChk:  IX=3 Diff= 5.74D-06
 Largest Abelian subgroup         CS      NOp   2
 Largest concise Abelian subgroup CS      NOp   2
                         Standard orientation:                         
 ---------------------------------------------------------------------
 Center     Atomic      Atomic             Coordinates (Angstroms)
 Number     Number       Type             X           Y           Z
 ---------------------------------------------------------------------
      1          6           0        0.000126    1.040830    1.179409
      2          6           0        0.000126   -0.305380    1.212494
      3          6           0       -0.000024   -1.098944    0.000000
      4          6           0        0.000126   -0.305380   -1.212494
      5          6           0        0.000126    1.040830   -1.179409
      6          7           0        0.000094    1.713323   -0.000000
      7          1           0        0.000268    1.661670    2.076408
      8          1           0        0.000241   -0.832602    2.166854
      9          1           0        0.000241   -0.832602   -2.166854
     10          1           0        0.000268    1.661670   -2.076408
     11          8           0       -0.000519   -2.326277    0.000000
     12          1           0       -0.000390    2.727093   -0.000000
 ---------------------------------------------------------------------
 Rotational constants (GHZ):      5.8208673      2.7369004      1.8615993
 Leave Link  202 at Fri Aug 27 21:08:56 2021, MaxMem= 17179869184 cpu:         6.7
 (Enter /public3/home/sc51754/softwares/g09e01/l301.exe)
 Basis read from rwf:  (5D, 7F)
 No pseudopotential information found on rwf file.
 There are   183 symmetry adapted cartesian basis functions of A'  symmetry.
 There are   137 symmetry adapted cartesian basis functions of A"  symmetry.
 There are   158 symmetry adapted basis functions of A'  symmetry.
 There are   122 symmetry adapted basis functions of A"  symmetry.
   280 basis functions,   475 primitive gaussians,   320 cartesian basis functions
    25 alpha electrons       25 beta electrons
       nuclear repulsion energy       275.6034299920 Hartrees.
 IExCor=  205 DFT=T Ex=S Corr=VWN ExCW=0 ScaHFX=  0.000000
 ScaDFX=  1.000000  1.000000  1.000000  1.000000 ScalE2=  1.000000  1.000000
 IRadAn=      0 IRanWt=     -1 IRanGd=            0 ICorTp=0 IEmpDi=  4
 NAtoms=   12 NActive=   12 NUniq=    8 SFac= 2.25D+00 NAtFMM=   60 NAOKFM=F Big=F
 Integral buffers will be    131072 words long.
 Raffenetti 2 integral format.
 Two-electron integral symmetry is turned on.
 No density basis found on file   724.
 Leave Link  301 at Fri Aug 27 21:08:56 2021, MaxMem= 17179869184 cpu:         1.4
 (Enter /public3/home/sc51754/softwares/g09e01/l302.exe)
 NPDir=0 NMtPBC=     1 NCelOv=     1 NCel=       1 NClECP=     1 NCelD=      1
         NCelK=      1 NCelE2=     1 NClLst=     1 CellRange=     0.0.
 One-electron integrals computed using PRISM.
 One-electron integral symmetry used in STVInt
 NBasis=   280 RedAO= T EigKep=  1.75D-04  NBF=   158   122
 NBsUse=   280 1.00D-06 EigRej= -1.00D+00 NBFU=   158   122
 Precomputing XC quadrature grid using
 IXCGrd= 4 IRadAn=           0 IRanWt=          -1 IRanGd=           0 AccXCQ= 0.00D+00.
 Generated NRdTot=       0 NPtTot=           0 NUsed=           0 NTot=          32
 NSgBfM=   320   320   320   320   320 MxSgAt=    12 MxSgA2=    12.
 Leave Link  302 at Fri Aug 27 21:08:57 2021, MaxMem= 17179869184 cpu:        41.5
 (Enter /public3/home/sc51754/softwares/g09e01/l303.exe)
 DipDrv:  MaxL=1.
 Leave Link  303 at Fri Aug 27 21:08:58 2021, MaxMem= 17179869184 cpu:        13.2
 (Enter /public3/home/sc51754/softwares/g09e01/l401.exe)
 Initial guess from the checkpoint file:  "4PY_SVWN_PC2_OPT_FREQ.chk"
 B after Tr=     0.000000    0.000000    0.000000
         Rot=    1.000000   -0.000000    0.000000   -0.000009 Ang=  -0.00 deg.
 Guess basis will be translated and rotated to current coordinates.
 JPrj=2 DoOrth=T DoCkMO=T.
 Initial guess orbital symmetries:
       Occupied  (A') (A') (A") (A') (A') (A") (A') (A') (A') (A')
                 (A") (A") (A') (A') (A") (A') (A") (A') (A') (A')
                 (A") (A') (A") (A') (A")
       Virtual   (A') (A') (A') (A') (A') (A') (A') (A') (A') (A')
                 (A') (A') (A') (A') (A') (A') (A') (A') (A') (A')
                 (A') (A') (A') (A') (A') (A') (A') (A') (A') (A')
                 (A') (A') (A') (A') (A') (A') (A') (A') (A') (A')
                 (A') (A') (A') (A') (A') (A') (A') (A') (A') (A')
                 (A') (A') (A') (A') (A') (A') (A') (A') (A') (A')
                 (A') (A') (A') (A') (A') (A') (A') (A') (A') (A')
                 (A') (A') (A') (A') (A') (A') (A') (A') (A') (A')
                 (A') (A') (A') (A') (A') (A') (A') (A') (A') (A')
                 (A') (A') (A') (A') (A') (A') (A') (A') (A') (A')
                 (A') (A') (A') (A') (A') (A') (A') (A') (A') (A')
                 (A') (A') (A') (A') (A') (A') (A') (A') (A') (A')
                 (A') (A') (A') (A') (A') (A') (A') (A') (A') (A')
                 (A') (A') (A') (A') (A') (A') (A') (A') (A') (A')
                 (A') (A') (A") (A") (A") (A") (A") (A") (A") (A")
                 (A") (A") (A") (A") (A") (A") (A") (A") (A") (A")
                 (A") (A") (A") (A") (A") (A") (A") (A") (A") (A")
                 (A") (A") (A") (A") (A") (A") (A") (A") (A") (A")
                 (A") (A") (A") (A") (A") (A") (A") (A") (A") (A")
                 (A") (A") (A") (A") (A") (A") (A") (A") (A") (A")
                 (A") (A") (A") (A") (A") (A") (A") (A") (A") (A")
                 (A") (A") (A") (A") (A") (A") (A") (A") (A") (A")
                 (A") (A") (A") (A") (A") (A") (A") (A") (A") (A")
                 (A") (A") (A") (A") (A") (A") (A") (A") (A") (A")
                 (A") (A") (A") (A") (A") (A") (A") (A") (A") (A")
                 (A") (A") (A") (A") (A")
 The electronic state of the initial guess is 1-A'.
 Generating alternative initial guess.
 ExpMin= 7.41D-02 ExpMax= 1.48D+04 ExpMxC= 5.05D+02 IAcc=2 IRadAn=         4 AccDes= 0.00D+00
 Harris functional with IExCor=  205 and IRadAn=       4 diagonalized for initial guess.
 HarFok:  IExCor=  205 AccDes= 0.00D+00 IRadAn=         4 IDoV= 1 UseB2=F ITyADJ=14
 ICtDFT=  3500011 ScaDFX=  1.000000  1.000000  1.000000  1.000000
 FoFCou: FMM=F IPFlag=           0 FMFlag=      100000 FMFlg1=           0
         NFxFlg=           0 DoJE=T BraDBF=F KetDBF=T FulRan=T
         wScrn=  0.000000 ICntrl=     500 IOpCl=  0 I1Cent=   200000004 NGrid=           0
         NMat0=    1 NMatS0=      1 NMatT0=    0 NMatD0=    1 NMtDS0=    0 NMtDT0=    0
 Petite list used in FoFCou.
 Harris En= -322.062496595185    
 Leave Link  401 at Fri Aug 27 21:08:59 2021, MaxMem= 17179869184 cpu:        50.6
 (Enter /public3/home/sc51754/softwares/g09e01/l502.exe)
 Closed shell SCF:
 Using DIIS extrapolation, IDIIS=  1040.
 Integral symmetry usage will be decided dynamically.
 Keep J ints in memory in symmetry-blocked form, NReq=1161351758.
 IVT=      348938 IEndB=      348938 NGot= 17179869184 MDV= 16792355177
 LenX= 16792355177 LenY= 16792252336
 Requested convergence on RMS density matrix=1.00D-08 within 128 cycles.
 Requested convergence on MAX density matrix=1.00D-06.
 Requested convergence on             energy=1.00D-06.
 No special actions if energy rises.
 FoFCou: FMM=F IPFlag=           0 FMFlag=           0 FMFlg1=           0
         NFxFlg=           0 DoJE=F BraDBF=F KetDBF=F FulRan=T
         wScrn=  0.000000 ICntrl=     600 IOpCl=  0 I1Cent=           0 NGrid=           0
         NMat0=    1 NMatS0=  39340 NMatT0=    0 NMatD0=    1 NMtDS0=    0 NMtDT0=    0
 Petite list used in FoFCou.
 Integral accuracy reduced to 1.0D-05 until final iterations.

 Cycle   1  Pass 0  IDiag  1:
 E= -321.884323560387    
 DIIS: error= 2.69D-03 at cycle   1 NSaved=   1.
 NSaved= 1 IEnMin= 1 EnMin= -321.884323560387     IErMin= 1 ErrMin= 2.69D-03
 ErrMax= 2.69D-03  0.00D+00 EMaxC= 1.00D-01 BMatC= 1.02D-03 BMatP= 1.02D-03
 IDIUse=3 WtCom= 9.73D-01 WtEn= 2.69D-02
 Coeff-Com:  0.100D+01
 Coeff-En:   0.100D+01
 Coeff:      0.100D+01
 Gap=     0.497 Goal=   None    Shift=    0.000
 GapD=    0.497 DampG=2.000 DampE=1.000 DampFc=2.0000 IDamp=-1.
 RMSDP=1.23D-04 MaxDP=4.76D-03              OVMax= 6.71D-03

 Cycle   2  Pass 0  IDiag  1:
 E= -321.884710613858     Delta-E=       -0.000387053471 Rises=F Damp=F
 DIIS: error= 1.15D-03 at cycle   2 NSaved=   2.
 NSaved= 2 IEnMin= 2 EnMin= -321.884710613858     IErMin= 2 ErrMin= 1.15D-03
 ErrMax= 1.15D-03  0.00D+00 EMaxC= 1.00D-01 BMatC= 1.70D-04 BMatP= 1.02D-03
 IDIUse=3 WtCom= 9.89D-01 WtEn= 1.15D-02
 Coeff-Com:  0.210D+00 0.790D+00
 Coeff-En:   0.000D+00 0.100D+01
 Coeff:      0.207D+00 0.793D+00
 Gap=     0.124 Goal=   None    Shift=    0.000
 RMSDP=7.06D-05 MaxDP=3.76D-03 DE=-3.87D-04 OVMax= 8.77D-03

 Cycle   3  Pass 0  IDiag  1:
 E= -321.884516514481     Delta-E=        0.000194099377 Rises=F Damp=F
 DIIS: error= 1.55D-03 at cycle   3 NSaved=   3.
 NSaved= 3 IEnMin= 2 EnMin= -321.884710613858     IErMin= 2 ErrMin= 1.15D-03
 ErrMax= 1.55D-03  0.00D+00 EMaxC= 1.00D-01 BMatC= 4.07D-04 BMatP= 1.70D-04
 IDIUse=3 WtCom= 2.03D-01 WtEn= 7.97D-01
 Coeff-Com:  0.450D-01 0.597D+00 0.358D+00
 Coeff-En:   0.000D+00 0.662D+00 0.338D+00
 Coeff:      0.911D-02 0.649D+00 0.342D+00
 Gap=     0.121 Goal=   None    Shift=    0.000
 RMSDP=5.92D-05 MaxDP=3.26D-03 DE= 1.94D-04 OVMax= 8.63D-03

 Cycle   4  Pass 0  IDiag  1:
 E= -321.884813421412     Delta-E=       -0.000296906930 Rises=F Damp=F
 DIIS: error= 4.81D-04 at cycle   4 NSaved=   4.
 NSaved= 4 IEnMin= 4 EnMin= -321.884813421412     IErMin= 4 ErrMin= 4.81D-04
 ErrMax= 4.81D-04  0.00D+00 EMaxC= 1.00D-01 BMatC= 3.94D-05 BMatP= 1.70D-04
 IDIUse=3 WtCom= 9.95D-01 WtEn= 4.81D-03
 EnCoef did     3 forward-backward iterations
 Coeff-Com:  0.148D-01 0.397D+00 0.252D+00 0.336D+00
 Coeff-En:   0.000D+00 0.144D+00 0.547D-01 0.801D+00
 Coeff:      0.147D-01 0.396D+00 0.251D+00 0.339D+00
 Gap=     0.122 Goal=   None    Shift=    0.000
 RMSDP=2.84D-05 MaxDP=9.72D-04 DE=-2.97D-04 OVMax= 3.98D-03

 Cycle   5  Pass 0  IDiag  1:
 E= -321.884849522560     Delta-E=       -0.000036101148 Rises=F Damp=F
 DIIS: error= 9.07D-05 at cycle   5 NSaved=   5.
 NSaved= 5 IEnMin= 5 EnMin= -321.884849522560     IErMin= 5 ErrMin= 9.07D-05
 ErrMax= 9.07D-05  0.00D+00 EMaxC= 1.00D-01 BMatC= 2.08D-06 BMatP= 3.94D-05
 IDIUse=1 WtCom= 1.00D+00 WtEn= 0.00D+00
 Coeff-Com:  0.548D-02 0.203D+00 0.135D+00 0.217D+00 0.439D+00
 Coeff:      0.548D-02 0.203D+00 0.135D+00 0.217D+00 0.439D+00
 Gap=     0.122 Goal=   None    Shift=    0.000
 RMSDP=6.18D-06 MaxDP=2.19D-04 DE=-3.61D-05 OVMax= 1.03D-03

 Initial convergence to 1.0D-05 achieved.  Increase integral accuracy.
 Cycle   6  Pass 1  IDiag  1:
 E= -321.884855000183     Delta-E=       -0.000005477624 Rises=F Damp=F
 DIIS: error= 5.76D-05 at cycle   1 NSaved=   1.
 NSaved= 1 IEnMin= 1 EnMin= -321.884855000183     IErMin= 1 ErrMin= 5.76D-05
 ErrMax= 5.76D-05  0.00D+00 EMaxC= 1.00D-01 BMatC= 9.39D-07 BMatP= 9.39D-07
 IDIUse=1 WtCom= 1.00D+00 WtEn= 0.00D+00
 Coeff-Com:  0.100D+01
 Coeff:      0.100D+01
 Gap=     0.123 Goal=   None    Shift=    0.000
 RMSDP=6.18D-06 MaxDP=2.19D-04 DE=-5.48D-06 OVMax= 1.76D-03

 Cycle   7  Pass 1  IDiag  1:
 E= -321.884848337091     Delta-E=        0.000006663093 Rises=F Damp=F
 DIIS: error= 1.70D-04 at cycle   2 NSaved=   2.
 NSaved= 2 IEnMin= 1 EnMin= -321.884855000183     IErMin= 1 ErrMin= 5.76D-05
 ErrMax= 1.70D-04  0.00D+00 EMaxC= 1.00D-01 BMatC= 6.99D-06 BMatP= 9.39D-07
 IDIUse=3 WtCom= 4.34D-01 WtEn= 5.66D-01
 Coeff-Com:  0.746D+00 0.254D+00
 Coeff-En:   0.826D+00 0.174D+00
 Coeff:      0.791D+00 0.209D+00
 Gap=     0.122 Goal=   None    Shift=    0.000
 RMSDP=6.91D-06 MaxDP=2.62D-04 DE= 6.66D-06 OVMax= 1.34D-03

 Cycle   8  Pass 1  IDiag  1:
 E= -321.884855925743     Delta-E=       -0.000007588652 Rises=F Damp=F
 DIIS: error= 2.57D-05 at cycle   3 NSaved=   3.
 NSaved= 3 IEnMin= 3 EnMin= -321.884855925743     IErMin= 3 ErrMin= 2.57D-05
 ErrMax= 2.57D-05  0.00D+00 EMaxC= 1.00D-01 BMatC= 1.91D-07 BMatP= 9.39D-07
 IDIUse=1 WtCom= 1.00D+00 WtEn= 0.00D+00
 Coeff-Com:  0.375D+00 0.647D-01 0.561D+00
 Coeff:      0.375D+00 0.647D-01 0.561D+00
 Gap=     0.122 Goal=   None    Shift=    0.000
 RMSDP=2.03D-06 MaxDP=8.40D-05 DE=-7.59D-06 OVMax= 2.20D-04

[...]
 Iteration  2 RMS(Cart)=  0.00000005 RMS(Int)=  0.00000005
 ITry= 1 IFail=0 DXMaxC= 7.69D-04 DCOld= 1.00D+10 DXMaxT= 3.00D-01 DXLimC= 3.00D+00 Rises=F
 ClnCor:  largest displacement from symmetrization is 3.93D-10 for atom     9.
 Variable       Old X    -DE/DX   Delta X   Delta X   Delta X     New X
                                 (Linear)    (Quad)   (Total)
    R1        2.54808  -0.00004   0.00000  -0.00009  -0.00009   2.54799
    R2        2.56352   0.00003   0.00000   0.00008   0.00008   2.56360
    R3        2.06207  -0.00000   0.00000  -0.00000  -0.00000   2.06207
    R4        2.73718   0.00000   0.00000   0.00002   0.00002   2.73720
    R5        2.06095  -0.00001   0.00000  -0.00004  -0.00004   2.06091
    R6        2.73718   0.00000   0.00000   0.00002   0.00002   2.73720
    R7        2.32325  -0.00006   0.00000  -0.00009  -0.00009   2.32316
    R8        2.54808  -0.00004   0.00000  -0.00009  -0.00009   2.54799
    R9        2.06095  -0.00001   0.00000  -0.00004  -0.00004   2.06091
   R10        2.56352   0.00003   0.00000   0.00008   0.00008   2.56360
   R11        2.06207  -0.00000   0.00000  -0.00000  -0.00000   2.06207
   R12        1.91659  -0.00001   0.00000  -0.00004  -0.00004   1.91655
    A1        2.11271   0.00001   0.00000   0.00008   0.00008   2.11279
    A2        2.14828   0.00001   0.00000   0.00013   0.00013   2.14841
    A3        2.02220  -0.00003   0.00000  -0.00021  -0.00021   2.02199
    A4        2.12588  -0.00000   0.00000  -0.00002  -0.00002   2.12586
    A5        2.10067  -0.00001   0.00000  -0.00006  -0.00006   2.10061
    A6        2.05664   0.00001   0.00000   0.00008   0.00008   2.05671
    A7        1.98250   0.00001   0.00000   0.00001   0.00001   1.98251
    A8        2.15034  -0.00000   0.00000  -0.00000  -0.00000   2.15034
    A9        2.15034  -0.00000   0.00000  -0.00000  -0.00000   2.15034
   A10        2.12588  -0.00000   0.00000  -0.00002  -0.00002   2.12586
   A11        2.05664   0.00001   0.00000   0.00008   0.00008   2.05671
   A12        2.10067  -0.00001   0.00000  -0.00006  -0.00006   2.10061
   A13        2.11271   0.00001   0.00000   0.00008   0.00008   2.11279
   A14        2.14828   0.00001   0.00000   0.00013   0.00013   2.14841
   A15        2.02220  -0.00003   0.00000  -0.00021  -0.00021   2.02199
   A16        2.10668  -0.00003   0.00000  -0.00012  -0.00012   2.10656
   A17        2.08825   0.00001   0.00000   0.00006   0.00006   2.08831
   A18        2.08825   0.00001   0.00000   0.00006   0.00006   2.08831
    D1       -0.00026   0.00001   0.00000   0.00026   0.00026   0.00000
    D2        3.14148   0.00001   0.00000   0.00011   0.00011   3.14159
    D3        3.14140   0.00001   0.00000   0.00019   0.00019  -3.14159
    D4       -0.00005   0.00000   0.00000   0.00005   0.00005  -0.00000
    D5       -0.00007   0.00000   0.00000   0.00007   0.00007  -0.00000
    D6        3.14146   0.00000   0.00000   0.00014   0.00014  -3.14159
    D7        3.14147   0.00000   0.00000   0.00013   0.00013   3.14159
    D8       -0.00020   0.00000   0.00000   0.00020   0.00020   0.00000
    D9        0.00052  -0.00002   0.00000  -0.00053  -0.00053  -0.00000
   D10        3.14099   0.00002   0.00000   0.00060   0.00060   3.14159
   D11       -3.14120  -0.00002   0.00000  -0.00039  -0.00039  -3.14159
   D12       -0.00074   0.00003   0.00000   0.00073   0.00073  -0.00000
   D13       -0.00052   0.00002   0.00000   0.00053   0.00053   0.00000
   D14        3.14120   0.00002   0.00000   0.00039   0.00039   3.14159
   D15       -3.14099  -0.00002   0.00000  -0.00060  -0.00060  -3.14159
   D16        0.00074  -0.00003   0.00000  -0.00073  -0.00073   0.00000
   D17        0.00026  -0.00001   0.00000  -0.00026  -0.00026  -0.00000
   D18       -3.14140  -0.00001   0.00000  -0.00019  -0.00019   3.14159
   D19       -3.14148  -0.00001   0.00000  -0.00011  -0.00011  -3.14159
   D20        0.00005  -0.00000   0.00000  -0.00005  -0.00005   0.00000
   D21        0.00007  -0.00000   0.00000  -0.00007  -0.00007   0.00000
   D22       -3.14146  -0.00000   0.00000  -0.00014  -0.00014   3.14159
   D23       -3.14147  -0.00000   0.00000  -0.00013  -0.00013  -3.14159
   D24        0.00020  -0.00000   0.00000  -0.00020  -0.00020  -0.00000
         Item               Value     Threshold  Converged?
 Maximum Force            0.000062     0.000450     YES
 RMS     Force            0.000018     0.000300     YES
 Maximum Displacement     0.000769     0.001800     YES
 RMS     Displacement     0.000140     0.001200     YES
 Predicted change in Energy=-8.255153D-08
 Optimization completed.
    -- Stationary point found.
                           ----------------------------
                           !   Optimized Parameters   !
                           ! (Angstroms and Degrees)  !
 --------------------------                            --------------------------
 ! Name  Definition              Value          Derivative Info.                !
 --------------------------------------------------------------------------------
 ! R1    R(1,2)                  1.3484         -DE/DX =    0.0                 !
 ! R2    R(1,6)                  1.3566         -DE/DX =    0.0                 !
 ! R3    R(1,7)                  1.0912         -DE/DX =    0.0                 !
 ! R4    R(2,3)                  1.4485         -DE/DX =    0.0                 !
 ! R5    R(2,8)                  1.0906         -DE/DX =    0.0                 !
 ! R6    R(3,4)                  1.4485         -DE/DX =    0.0                 !
 ! R7    R(3,11)                 1.2294         -DE/DX =   -0.0001              !
 ! R8    R(4,5)                  1.3484         -DE/DX =    0.0                 !
 ! R9    R(4,9)                  1.0906         -DE/DX =    0.0                 !
 ! R10   R(5,6)                  1.3566         -DE/DX =    0.0                 !
 ! R11   R(5,10)                 1.0912         -DE/DX =    0.0                 !
 ! R12   R(6,12)                 1.0142         -DE/DX =    0.0                 !
 ! A1    A(2,1,6)              121.0495         -DE/DX =    0.0                 !
 ! A2    A(2,1,7)              123.0872         -DE/DX =    0.0                 !
 ! A3    A(6,1,7)              115.8633         -DE/DX =    0.0                 !
 ! A4    A(1,2,3)              121.8039         -DE/DX =    0.0                 !
 ! A5    A(1,2,8)              120.3595         -DE/DX =    0.0                 !
 ! A6    A(3,2,8)              117.8365         -DE/DX =    0.0                 !
 ! A7    A(2,3,4)              113.5891         -DE/DX =    0.0                 !
 ! A8    A(2,3,11)             123.2054         -DE/DX =    0.0                 !
 ! A9    A(4,3,11)             123.2054         -DE/DX =    0.0                 !
 ! A10   A(3,4,5)              121.8039         -DE/DX =    0.0                 !
 ! A11   A(3,4,9)              117.8365         -DE/DX =    0.0                 !
 ! A12   A(5,4,9)              120.3595         -DE/DX =    0.0                 !
 ! A13   A(4,5,6)              121.0495         -DE/DX =    0.0                 !
 ! A14   A(4,5,10)             123.0872         -DE/DX =    0.0                 !
 ! A15   A(6,5,10)             115.8633         -DE/DX =    0.0                 !
 ! A16   A(1,6,5)              120.704          -DE/DX =    0.0                 !
 ! A17   A(1,6,12)             119.648          -DE/DX =    0.0                 !
 ! A18   A(5,6,12)             119.648          -DE/DX =    0.0                 !
 ! D1    D(6,1,2,3)             -0.0146         -DE/DX =    0.0                 !
 ! D2    D(6,1,2,8)            179.9934         -DE/DX =    0.0                 !
 ! D3    D(7,1,2,3)           -180.0109         -DE/DX =    0.0                 !
 ! D4    D(7,1,2,8)             -0.0028         -DE/DX =    0.0                 !
 ! D5    D(2,1,6,5)             -0.0037         -DE/DX =    0.0                 !
 ! D6    D(2,1,6,12)          -180.0079         -DE/DX =    0.0                 !
 ! D7    D(7,1,6,5)            179.9928         -DE/DX =    0.0                 !
 ! D8    D(7,1,6,12)            -0.0113         -DE/DX =    0.0                 !
 ! D9    D(1,2,3,4)              0.0301         -DE/DX =    0.0                 !
 ! D10   D(1,2,3,11)           179.9657         -DE/DX =    0.0                 !
 ! D11   D(8,2,3,4)           -179.9778         -DE/DX =    0.0                 !
 ! D12   D(8,2,3,11)            -0.0421         -DE/DX =    0.0                 !
 ! D13   D(2,3,4,5)             -0.0301         -DE/DX =    0.0                 !
 ! D14   D(2,3,4,9)            179.9778         -DE/DX =    0.0                 !
 ! D15   D(11,3,4,5)          -179.9657         -DE/DX =    0.0                 !
 ! D16   D(11,3,4,9)             0.0421         -DE/DX =    0.0                 !
 ! D17   D(3,4,5,6)              0.0146         -DE/DX =    0.0                 !
 ! D18   D(3,4,5,10)           180.0109         -DE/DX =    0.0                 !
 ! D19   D(9,4,5,6)           -179.9934         -DE/DX =    0.0                 !
 ! D20   D(9,4,5,10)             0.0028         -DE/DX =    0.0                 !
 ! D21   D(4,5,6,1)              0.0037         -DE/DX =    0.0                 !
 ! D22   D(4,5,6,12)           180.0079         -DE/DX =    0.0                 !
 ! D23   D(10,5,6,1)          -179.9928         -DE/DX =    0.0                 !
 ! D24   D(10,5,6,12)            0.0113         -DE/DX =    0.0                 !
 --------------------------------------------------------------------------------
 GradGradGradGradGradGradGradGradGradGradGradGradGradGradGradGradGradGrad

 Leave Link  103 at Fri Aug 27 21:10:07 2021, MaxMem= 17179869184 cpu:        48.9
 (Enter /public3/home/sc51754/softwares/g09e01/l9999.exe)
 1\1\GINC-T1507\Freq\RSVWN\Gen\C5H5N1O1\SC51754\27-Aug-2021\0\\#P Geom=
 AllCheck Guess=TCheck SCRF=Check GenChk RSVWN/ChkBas Freq\\4PY_SVWN_PC
 2_OPT_FREQ\\0,1\C,-0.0001667397,-1.0450707209,1.1789576048\C,-0.000093
 3171,0.3029125701,1.21193681\C,0.000303659,1.0961462665,0.\C,-0.000093
 3171,0.3029125701,-1.21193681\C,-0.0001667397,-1.0450707209,-1.1789576
 048\N,-0.0001656697,-1.7161195429,0.\H,-0.0002896759,-1.6629574352,2.0
 783677863\H,-0.0002029153,0.8309501397,2.1661889126\H,-0.0002029153,0.
 8309501397,-2.1661889126\H,-0.0002896759,-1.6629574352,-2.0783677863\O
 ,-0.0002359229,2.3255596034,0.\H,-0.0001007705,-2.7303354342,0.\\Versi
 on=EM64L-G09RevE.01\State=1-A'\HF=-321.8848713\RMSD=3.507e-09\RMSF=4.2
 43e-05\ZeroPoint=0.0914048\Thermal=0.0969102\Dipole=0.000128,-2.770509
 6,0.\DipoleDeriv=-0.0897068,0.0000128,-0.0000233,0.0001064,0.5948713,0
 .2163509,-0.000032,0.3435474,0.3236024,-0.177519,-0.0001029,0.0000471,
 -0.0000534,-0.4984563,0.0541946,-0.0000063,0.4502328,-0.1404676,0.2019
 829,0.0000734,0.,0.0001601,1.6848033,0.,0.,0.,0.4522365,-0.177519,-0.0
 001029,-0.0000471,-0.0000534,-0.4984563,-0.0541946,0.0000063,-0.450232
 8,-0.1404676,-0.0897068,0.0000128,0.0000233,0.0001064,0.5948713,-0.216
 351,0.000032,-0.3435474,0.3236025,-0.1453642,-0.0000837,0.,-0.0000814,
 -0.8266792,0.,0.,0.,-0.5898522,0.1520073,-0.0000653,0.0000084,-0.00000
 06,0.0228356,0.064484,0.0000285,0.0517985,0.0200901,0.1437393,-0.00001
 55,0.0000146,-0.0000045,0.0643589,-0.032923,0.0000104,-0.0139538,0.011
 3304,0.1437393,-0.0000155,-0.0000146,-0.0000045,0.0643589,0.032923,-0.
 0000104,0.0139538,0.0113304,0.1520073,-0.0000653,-0.0000084,-0.0000006
 ,0.0228356,-0.064484,-0.0000285,-0.0517985,0.0200901,-0.4076189,0.0002
 772,0.,-0.0001773,-1.5214342,0.,0.,0.,-0.4339736,0.2939588,0.0000749,0
 .,0.0000029,0.2960911,0.,0.,0.,0.1424787\Polar=38.6994613,0.0015881,92
 .6075347,0.,-0.0000002,73.013569\PG=CS [SG(C1H1N1O1),X(C4H4)]\NImag=0\
 \0.12430801,0.00005632,0.80291363,-0.00004015,-0.03533772,0.68681637,-
 0.05014077,-0.00002937,0.00001592,0.10140187,-0.00003439,-0.44851202,0
 .01066879,0.00003744,0.77150575,0.00001184,-0.01483298,-0.12053139,-0.
 00008061,0.06965412,0.62354257,0.00067327,0.00001110,-0.00000288,-0.07
 069280,-0.00003573,0.00004723,0.18563159,-0.00001113,-0.02854714,0.026
 35047,-0.00002777,-0.11234499,0.04619642,-0.00015074,0.87078940,-0.000
 00536,0.03758115,0.03668361,0.00005464,0.03236146,-0.21369738,0.,0.,0.
 53352985,-0.00170519,-0.00000449,-0.00000322,0.00795196,0.00000061,0.0
 0000576,-0.07069280,-0.00002777,-0.00005464,0.10140187,0.00000302,-0.0
 1168965,-0.01991265,0.00000061,0.02893368,0.00580117,-0.00003573,-0.11
 234499,-0.03236146,0.00003744,0.77150575,0.00000147,0.00239064,-0.0024
 9679,-0.00000576,-0.00580117,-0.03243210,-0.00004723,-0.04619643,-0.21
 369738,0.00008061,-0.06965412,0.62354257,0.00716069,-0.00000057,0.0000
 0021,-0.00170519,0.00000302,-0.00000147,0.00067327,-0.00001113,0.00000
 536,-0.05014077,-0.00003439,-0.00001184,0.12430801,-0.00000057,0.01973
 230,0.00692320,-0.00000449,-0.01168965,-0.00239064,0.00001110,-0.02854
 714,-0.03758115,-0.00002937,-0.44851202,0.01483298,0.00005632,0.802913
 63,-0.00000021,-0.00692320,-0.07033715,0.00000322,0.01991265,-0.002496
 79,0.00000288,-0.02635047,0.03668361,-0.00001592,-0.01066879,-0.120531
 39,0.00004015,0.03533772,0.68681637,-0.04743505,-0.00000370,0.00000444
 ,0.01037803,0.00000306,-0.00000278,-0.01052189,-0.00000144,0.,0.010378
 03,0.00000306,0.00000278,-0.04743505,-0.00000370,-0.00000444,0.0718355
 7,-0.00000149,-0.17623617,-0.10386395,0.00000160,-0.04009977,-0.039336
 58,-0.00000370,0.00808352,0.,0.00000160,-0.04009977,0.03933658,-0.0000
 0149,-0.17623617,0.10386395,-0.00002095,0.85604694,0.00000151,-0.07754
 685,-0.28725853,-0.00000392,-0.04853992,0.00430198,0.,0.,-0.04752375,0
 .00000392,0.04853992,0.00430198,-0.00000151,0.07754685,-0.28725853,0.,
 0.,0.70752008,-0.03307032,-0.00001531,0.00003093,0.00630231,-0.0000034
 4,0.00000401,0.01051185,0.00000022,-0.00000253,-0.00099046,0.00000095,
 -0.00000023,0.00359792,0.00000105,0.00000129,0.00028445,-0.00000252,-0
 .00000252,0.02194528,-0.00001654,-0.14312281,0.13318350,-0.00000872,-0
 .01190671,0.02538235,0.00000024,-0.00195159,-0.00503377,-0.00000002,0.
 00050337,0.00018403,-0.00000010,-0.00194444,-0.00206280,0.00000104,0.0
 1133975,-0.01911758,0.00002210,0.14675991,0.00002878,0.12409774,-0.235
 00653,-0.00000133,-0.00106375,0.00550628,0.00000069,-0.00164164,0.0009
 0161,0.00000013,0.00026921,0.00086026,0.00000073,-0.00551569,-0.001194
 67,0.00000316,0.01613389,-0.02536453,-0.00003096,-0.13372523,0.2541627
 6,-0.00139849,-0.00000386,-0.00000176,-0.02965135,0.00001228,0.0000244
 6,0.00479938,0.00000662,0.00000902,0.00316487,-0.00000144,0.00000243,-
 0.00003955,-0.00000198,-0.00000004,0.00875426,0.00000020,0.00000012,-0
 .00492743,0.00000005,-0.00000027,0.02211739,0.00000271,-0.00939611,-0.
 02611161,0.00000974,-0.11322304,-0.11600036,-0.00000249,0.01165341,0.0
 1386489,-0.00000019,-0.00191186,0.00264175,-0.00000006,-0.00021912,0.0
 0059409,-0.00000083,-0.00508260,0.00148993,0.00000075,0.00083912,0.000
 04630,-0.00001013,0.11661430,-0.00000103,0.00299202,0.00269945,0.00003
 092,-0.11926998,-0.26607348,0.00000191,-0.01667703,-0.01762578,0.00000
 209,0.00346102,-0.00366812,-0.00000007,0.00156409,-0.00058136,0.000002
 84,0.00164778,0.00336300,-0.00000161,-0.00044935,0.00063463,-0.0000330
 4,0.12690502,0.27784829,-0.00003955,-0.00000198,0.00000004,0.00316487,
 -0.00000144,-0.00000243,0.00479938,0.00000662,-0.00000902,-0.02965135,
 0.00001228,-0.00002446,-0.00139849,-0.00000386,0.00000176,0.00875426,0
 .00000020,-0.00000012,-0.00071418,0.00000019,-0.00000018,-0.00099199,0
 .00000056,-0.00000061,0.02211739,-0.00000006,-0.00021912,-0.00059409,-
 0.00000019,-0.00191186,-0.00264175,-0.00000249,0.01165341,-0.01386489,
 0.00000974,-0.11322304,0.11600036,0.00000271,-0.00939611,0.02611161,-0
 .00000083,-0.00508260,-0.00148993,0.,0.00005307,0.00008350,0.00000056,
 0.00050095,-0.00076896,-0.00001013,0.11661430,0.00000007,-0.00156409,-
 0.00058136,-0.00000209,-0.00346102,-0.00366812,-0.00000191,0.01667703,
 -0.01762578,-0.00003092,0.11926998,-0.26607348,0.00000103,-0.00299202,
 0.00269945,-0.00000284,-0.00164778,0.00336300,0.00000036,0.00006312,0.
 00001282,0.00000061,0.00076896,-0.00094246,0.00003304,-0.12690502,0.27
 784829,0.00359792,0.00000105,-0.00000129,-0.00099046,0.00000095,0.0000
 0023,0.01051185,0.00000022,0.00000253,0.00630231,-0.00000344,-0.000004
 01,-0.03307032,-0.00001531,-0.00003093,0.00028445,-0.00000252,0.000002
 52,0.00102311,-0.00000015,-0.00000010,-0.00071418,0.,-0.00000036,-0.00
 492743,0.00000075,0.00000161,0.02194528,-0.00000010,-0.00194444,0.0020
 6280,-0.00000002,0.00050337,-0.00018403,0.00000024,-0.00195159,0.00503
 377,-0.00000872,-0.01190671,-0.02538235,-0.00001654,-0.14312281,-0.133
 18350,0.00000104,0.01133975,0.01911758,-0.00000015,0.00048261,0.000592
 16,0.00000019,0.00005307,-0.00006312,0.00000005,0.00083912,0.00044935,
 0.00002210,0.14675991,-0.00000073,0.00551569,-0.00119467,-0.00000013,-
 0.00026921,0.00086026,-0.00000069,0.00164164,0.00090161,0.00000133,0.0
 0106375,0.00550628,-0.00002878,-0.12409774,-0.23500653,-0.00000316,-0.
 01613389,-0.02536453,0.00000010,-0.00059216,-0.00096284,0.00000018,-0.
 00008350,0.00001282,0.00000027,-0.00004630,0.00063463,0.00003096,0.133
 72523,0.25416276,0.00348763,-0.00000476,0.00000107,0.02067552,0.000015
 30,-0.00000503,-0.06519119,0.00021629,0.,0.02067552,0.00001530,0.00000
 503,0.00348763,-0.00000476,-0.00000107,0.00030521,0.00000140,0.,-0.002
 25026,0.00000116,-0.00000031,-0.00271879,0.00000046,-0.00000146,-0.002
 71879,0.00000046,0.00000146,-0.00225026,0.00000116,0.00000031,0.026922
 25,0.00000110,0.00956808,0.00642451,0.00002041,-0.06389884,0.03159062,
 0.00020760,-0.61589656,0.,0.00002041,-0.06389884,-0.03159062,0.0000011
 0,0.00956808,-0.00642451,0.00000168,-0.00776985,0.,-0.00000344,-0.0021
 9806,0.00030340,-0.00000207,0.00055064,0.00027601,-0.00000207,0.000550
 64,-0.00027602,-0.00000344,-0.00219806,-0.00030340,-0.00024174,0.73430
 109,0.00000269,-0.00392431,-0.01308527,-0.00001144,0.04705641,0.010348
 06,0.,0.,-0.09705268,0.00001144,-0.04705641,0.01034806,-0.00000269,0.0
 0392431,-0.01308527,0.,0.,0.01238936,0.00000141,0.00180053,0.00009158,
 -0.00000130,-0.00295741,0.00406719,0.00000130,0.00295741,0.00406719,-0
 .00000141,-0.00180053,0.00009158,0.,0.,0.08118200,-0.00543815,-0.00000
 443,-0.00000331,0.00330603,0.00000234,-0.00000120,-0.00050189,0.000000
 02,0.,0.00330603,0.00000234,0.00000120,-0.00543815,-0.00000443,0.00000
 331,-0.00558228,0.00002767,0.,-0.00171227,0.00000076,-0.00000034,0.001
 60589,-0.00000050,0.00000043,0.00160589,-0.00000050,-0.00000043,-0.001
 71227,0.00000076,0.00000034,-0.00042447,0.00000048,0.,0.01098564,0.000
 00114,-0.01254654,0.00020674,0.00000077,0.00264407,-0.00323835,0.00000
 060,-0.00059575,0.,0.00000077,0.00264407,0.00323835,0.00000114,-0.0125
 4654,-0.00020674,0.00002159,-0.43620301,0.,-0.00000019,0.00114580,0.00
 042011,-0.00000043,-0.00037875,0.00038249,-0.00000043,-0.00037875,-0.0
 0038249,-0.00000019,0.00114580,-0.00042011,-0.00000025,0.00132169,0.,-
 0.00002451,0.45374791,0.00000112,-0.03244810,0.00429224,0.00000058,-0.
 00124838,-0.00565990,0.,0.,-0.00147756,-0.00000058,0.00124838,-0.00565
 990,-0.00000112,0.03244810,0.00429224,0.,0.,-0.06246953,-0.00000023,0.
 00036736,0.00035863,-0.00000041,-0.00115807,0.00026581,0.00000041,0.00
 115807,0.00026581,0.00000023,-0.00036736,0.00035863,0.,0.,0.00063819,0
 .,0.,0.06479534\\-0.00000087,-0.00009143,-0.00002282,-0.00004939,0.000
 01831,-0.00001309,0.00014828,-0.00004859,0.,-0.00004939,0.00001831,0.0
 0001309,-0.00000087,-0.00009143,0.00002282,-0.00000842,0.00009233,0.,0
 .00000522,0.00001369,0.00001425,0.00000104,0.00001227,0.00000669,0.000
 00104,0.00001227,-0.00000669,0.00000522,0.00001369,-0.00001425,-0.0000
 5436,0.00006230,0.,0.00000249,-0.00001174,0.\\\@


 IN THE WOODS WE RETURN TO REASON AND FAITH.

                                 -- EMERSON
 Job cpu time:       0 days  0 hours 25 minutes 56.2 seconds.
 File lengths (MBytes):  RWF=     65 Int=      0 D2E=      0 Chk=      7 Scr=      1
 Normal termination of Gaussian 09 at Fri Aug 27 21:10:07 2021.
