 Entering Gaussian System, Link 0=g09
 AtFile(1): pc-2.gbs
            -H     0
            S    4   1.00
                  0.754230D+02           0.240650D-02
                  0.113500D+02           0.184870D-01
                  0.259930D+01           0.897420D-01
                  0.735130D+00           0.281110D+00
            S    1   1.00
                  0.231670D+00           0.100000D+01
            S    1   1.00
                  0.741470D-01           0.100000D+01
            P    1   1.00
                  0.160000D+01           0.100000D+01
            P    1   1.00
                  0.450000D+00           0.100000D+01
            D    1   1.00
                  0.125000D+01           0.100000D+01
            ****
            -C     0
            S    7   1.00
                  0.785710D+04           0.568250D-03
                  0.117870D+04           0.439150D-02
                  0.268320D+03           0.225040D-01
                  0.759480D+02           0.866530D-01
                  0.245590D+02           0.244050D+00
                  0.862120D+01           0.441480D+00
                  0.312780D+01           0.353320D+00
            S    7   1.00
                  0.117870D+04          -0.594920D-06
                  0.268320D+03          -0.627480D-04
                  0.759480D+02          -0.757730D-03
                  0.245590D+02          -0.733080D-02
                  0.862120D+01          -0.389320D-01
                  0.312780D+01          -0.889080D-01
                  0.822020D+00           0.216890D+00
            S    1   1.00
                  0.330170D+00           0.100000D+01
            S    1   1.00
                  0.114630D+00           0.100000D+01
            P    4   1.00
                  0.337750D+02           0.602940D-02
                  0.767660D+01           0.432280D-01
                  0.223570D+01           0.163010D+00
                  0.764470D+00           0.365040D+00
            P    1   1.00
                  0.262320D+00           0.100000D+01
            P    1   1.00
                  0.846380D-01           0.100000D+01
            D    1   1.00
                  0.140000D+01           0.100000D+01
            D    1   1.00
                  0.450000D+00           0.100000D+01
            F    1   1.00
                  0.950000D+00           0.100000D+01
            ****
            -N     0
            S    7   1.00
                  0.111010D+05           0.545700D-03
                  0.166530D+04           0.421810D-02
                  0.379080D+03           0.216450D-01
                  0.107300D+03           0.837760D-01
                  0.347470D+02           0.238810D+00
                  0.122490D+02           0.439940D+00
                  0.447430D+01           0.363640D+00
            S    7   1.00
                  0.166530D+04          -0.150060D-05
                  0.379080D+03          -0.587530D-04
                  0.107300D+03          -0.774530D-03
                  0.347470D+02          -0.721610D-02
                  0.122490D+02          -0.393380D-01
                  0.447430D+01          -0.906110D-01
                  0.124040D+01           0.198820D+00
            S    1   1.00
                  0.487430D+00           0.100000D+01
            S    1   1.00
                  0.164840D+00           0.100000D+01
            P    4   1.00
                  0.479340D+02           0.617060D-02
                  0.109990D+02           0.442600D-01
                  0.324720D+01           0.168250D+00
                  0.111140D+01           0.368480D+00
            P    1   1.00
                  0.379880D+00           0.100000D+01
            P    1   1.00
                  0.120680D+00           0.100000D+01
            D    1   1.00
                  0.180000D+01           0.100000D+01
            D    1   1.00
                  0.550000D+00           0.100000D+01
            F    1   1.00
                  0.102000D+01           0.100000D+01
            ****
            -O     0
            S    7   1.00
                  0.147820D+05           0.535190D-03
                  0.221730D+04           0.413750D-02
                  0.504740D+03           0.212450D-01
                  0.142870D+03           0.824530D-01
                  0.463000D+02           0.236710D+00
                  0.163370D+02           0.440390D+00
                  0.598280D+01           0.364650D+00
            S    7   1.00
                  0.221730D+04          -0.192750D-05
                  0.504740D+03          -0.579640D-04
                  0.142870D+03          -0.794940D-03
                  0.463000D+02          -0.731250D-02
                  0.163370D+02          -0.405740D-01
                  0.598280D+01          -0.915940D-01
                  0.167180D+01           0.209400D+00
            S    1   1.00
                  0.646620D+00           0.100000D+01
            S    1   1.00
                  0.216690D+00           0.100000D+01
            P    4   1.00
                  0.604240D+02           0.689490D-02
                  0.139350D+02           0.490050D-01
                  0.415310D+01           0.182550D+00
                  0.141580D+01           0.376330D+00
            P    1   1.00
                  0.475490D+00           0.100000D+01
            P    1   1.00
                  0.145290D+00           0.100000D+01
            D    1   1.00
                  0.220000D+01           0.100000D+01
            D    1   1.00
                  0.650000D+00           0.100000D+01
            F    1   1.00
                  0.110000D+01           0.100000D+01
            ****
 Initial command:
 /gpfs/share/home/1801110325/software/g09e01/l1.exe "./Gau-11435.inp" -scrdir="./"
 Entering Link 1 = /gpfs/share/home/1801110325/software/g09e01/l1.exe PID=     11438.
  
 Copyright (c) 1988,1990,1992,1993,1995,1998,2003,2009,2015,
            Gaussian, Inc.  All Rights Reserved.
  
 This is part of the Gaussian(R) 09 program.  It is based on
 the Gaussian(R) 03 system (copyright 2003, Gaussian, Inc.),
 the Gaussian(R) 98 system (copyright 1998, Gaussian, Inc.),
 the Gaussian(R) 94 system (copyright 1995, Gaussian, Inc.),
 the Gaussian 92(TM) system (copyright 1992, Gaussian, Inc.),
 the Gaussian 90(TM) system (copyright 1990, Gaussian, Inc.),
 the Gaussian 88(TM) system (copyright 1988, Gaussian, Inc.),
 the Gaussian 86(TM) system (copyright 1986, Carnegie Mellon
 University), and the Gaussian 82(TM) system (copyright 1983,
 Carnegie Mellon University). Gaussian is a federally registered
 trademark of Gaussian, Inc.
  
 This software contains proprietary and confidential information,
 including trade secrets, belonging to Gaussian, Inc.
  
 This software is provided under written license and may be
 used, copied, transmitted, or stored only in accord with that
 written license.
  
 The following legend is applicable only to US Government
 contracts under FAR:
  
                    RESTRICTED RIGHTS LEGEND
  
 Use, reproduction and disclosure by the US Government is
 subject to restrictions as set forth in subparagraphs (a)
 and (c) of the Commercial Computer Software - Restricted
 Rights clause in FAR 52.227-19.
  
 Gaussian, Inc.
 340 Quinnipiac St., Bldg. 40, Wallingford CT 06492
  
  
 ---------------------------------------------------------------
 Warning -- This program may not be used in any manner that
 competes with the business of Gaussian, Inc. or will provide
 assistance to any competitor of Gaussian, Inc.  The licensee
 of this program is prohibited from giving any competitor of
 Gaussian, Inc. access to this program.  By using this program,
 the user acknowledges that Gaussian, Inc. is engaged in the
 business of creating and licensing software in the field of
 computational chemistry and represents and warrants to the
 licensee that it is not a competitor of Gaussian, Inc. and that
 it will not use this program in any manner prohibited above.
 ---------------------------------------------------------------
  

 Cite this work as:
 Gaussian 09, Revision E.01,
 M. J. Frisch, G. W. Trucks, H. B. Schlegel, G. E. Scuseria, 
 M. A. Robb, J. R. Cheeseman, G. Scalmani, V. Barone, B. Mennucci, 
 G. A. Petersson, H. Nakatsuji, M. Caricato, X. Li, H. P. Hratchian, 
 A. F. Izmaylov, J. Bloino, G. Zheng, J. L. Sonnenberg, M. Hada, 
 M. Ehara, K. Toyota, R. Fukuda, J. Hasegawa, M. Ishida, T. Nakajima, 
 Y. Honda, O. Kitao, H. Nakai, T. Vreven, J. A. Montgomery, Jr., 
 J. E. Peralta, F. Ogliaro, M. Bearpark, J. J. Heyd, E. Brothers, 
 K. N. Kudin, V. N. Staroverov, T. Keith, R. Kobayashi, J. Normand, 
 K. Raghavachari, A. Rendell, J. C. Burant, S. S. Iyengar, J. Tomasi, 
 M. Cossi, N. Rega, J. M. Millam, M. Klene, J. E. Knox, J. B. Cross, 
 V. Bakken, C. Adamo, J. Jaramillo, R. Gomperts, R. E. Stratmann, 
 O. Yazyev, A. J. Austin, R. Cammi, C. Pomelli, J. W. Ochterski, 
 R. L. Martin, K. Morokuma, V. G. Zakrzewski, G. A. Voth, 
 P. Salvador, J. J. Dannenberg, S. Dapprich, A. D. Daniels, 
 O. Farkas, J. B. Foresman, J. V. Ortiz, J. Cioslowski, 
 and D. J. Fox, Gaussian, Inc., Wallingford CT, 2013.
 
 ******************************************
 Gaussian 09:  EM64L-G09RevE.01 30-Nov-2015
                 5-Sep-2021 
 ******************************************
 %nprocshared=6
 Will use up to    6 processors via shared memory.
 %mem=10GB
 %oldchk=4PY_B3LYP_PC2_OPT_FREQ.chk
 %chk=4PY_TPSSh_PC2_OPT_FREQ.chk
 Copying data from "4PY_B3LYP_PC2_OPT_FREQ.chk" to current chk file "4PY_TPSSh_PC2_OPT_FREQ.chk".
 ----------------------------------------------------------------------
 #p opt=(calcfc) freq TPSSh/gen SCF(novaracc,noincfock) int=acc2e=12 ge
 om=checkpoint
 ----------------------------------------------------------------------
 1/10=4,14=-1,18=20,19=15,26=3,29=2,38=1/1,3;
 2/9=110,12=2,40=1/2;
 3/5=7,11=2,14=-4,16=1,25=1,30=1,71=2,74=-35,140=1/1,2,3;
 4//1;
 5/5=100002,38=1,87=12/2;
 8/6=4,10=90,11=11,87=12/1;
 11/6=1,8=1,9=11,15=111,16=1,87=12/1,2,10;
 10/6=1,13=1,87=12/2;
 6/7=2,8=2,9=2,10=2,28=1/1;
 7/10=1,18=20,25=1,87=12/1,2,3,16;
 1/10=4,14=-1,18=20,19=15,26=3/3(2);
 2/9=110/2;
 99//99;
 2/9=110/2;
 3/5=7,6=1,11=2,14=-2,16=1,25=1,30=1,71=1,74=-35,82=7/1,2,3;
 4/5=5,16=3,69=1/1;
 5/5=100002,38=1,87=12/2;
 7/87=12/1,2,3,16;
 1/14=-1,18=20,19=15,26=3/3(-5);
 2/9=110/2;
 6/7=2,8=2,9=2,10=2,19=2,28=1/1;
 99/9=1/99;
 Leave Link    1 at Sun Sep  5 14:47:29 2021, MaxMem=  1342177280 cpu:         3.5
 (Enter /gpfs/share/home/1801110325/software/g09e01/l101.exe)
 ----------------------
 4PY_TPSSh_PC2_OPT_FREQ
 ----------------------
 Structure from the checkpoint file:  "4PY_TPSSh_PC2_OPT_FREQ.chk"
 Charge =  0 Multiplicity = 1
 Redundant internal coordinates found in file.
 C,0,-0.0002047503,-1.0456176239,1.1886874162
 C,0,-0.0002272412,0.3039587838,1.2245826416
 C,0,-0.0008201804,1.1040497735,0.
 C,0,-0.0002272412,0.3039587838,-1.2245826416
 C,0,-0.0002047503,-1.0456176239,-1.1886874162
 N,0,-0.0003451368,-1.7240785733,0.
 H,0,-0.000036561,-1.6598385407,2.0776338701
 H,0,0.0000204484,0.8225355141,2.1717711382
 H,0,0.0000204484,0.8225355141,-2.1717711382
 H,0,-0.000036561,-1.6598385407,-2.0776338701
 O,0,0.0004193225,2.3328890226,0.
 H,0,-0.0000617969,-2.7280164894,0.
 Recover connectivity data from disk.
 NAtoms=     12 NQM=       12 NQMF=       0 NMMI=      0 NMMIF=      0
                NMic=       0 NMicF=      0.
                    Isotopes and Nuclear Properties:
 (Nuclear quadrupole moments (NQMom) in fm**2, nuclear magnetic moments (NMagM)
  in nuclear magnetons)

  Atom         1           2           3           4           5           6           7           8           9          10
 IAtWgt=          12          12          12          12          12          14           1           1           1           1
 AtmWgt=  12.0000000  12.0000000  12.0000000  12.0000000  12.0000000  14.0030740   1.0078250   1.0078250   1.0078250   1.0078250
 NucSpn=           0           0           0           0           0           2           1           1           1           1
 AtZEff=  -3.6000000  -3.6000000  -3.6000000  -3.6000000  -3.6000000  -4.5500000  -1.0000000  -1.0000000  -1.0000000  -1.0000000
 NQMom=    0.0000000   0.0000000   0.0000000   0.0000000   0.0000000   2.0440000   0.0000000   0.0000000   0.0000000   0.0000000
 NMagM=    0.0000000   0.0000000   0.0000000   0.0000000   0.0000000   0.4037610   2.7928460   2.7928460   2.7928460   2.7928460
 AtZNuc=   6.0000000   6.0000000   6.0000000   6.0000000   6.0000000   7.0000000   1.0000000   1.0000000   1.0000000   1.0000000

  Atom        11          12
 IAtWgt=          16           1
 AtmWgt=  15.9949146   1.0078250
 NucSpn=           0           1
 AtZEff=  -5.6000000  -1.0000000
 NQMom=    0.0000000   0.0000000
 NMagM=    0.0000000   2.7928460
 AtZNuc=   8.0000000   1.0000000
 Leave Link  101 at Sun Sep  5 14:47:29 2021, MaxMem=  1342177280 cpu:         1.9
 (Enter /gpfs/share/home/1801110325/software/g09e01/l103.exe)

 GradGradGradGradGradGradGradGradGradGradGradGradGradGradGradGradGradGrad
 Berny optimization.
 Initialization pass.
                           ----------------------------
                           !    Initial Parameters    !
                           ! (Angstroms and Degrees)  !
 --------------------------                            --------------------------
 ! Name  Definition              Value          Derivative Info.                !
 --------------------------------------------------------------------------------
 ! R1    R(1,2)                  1.3501         calculate D2E/DX2 analytically  !
 ! R2    R(1,6)                  1.3687         calculate D2E/DX2 analytically  !
 ! R3    R(1,7)                  1.0805         calculate D2E/DX2 analytically  !
 ! R4    R(2,3)                  1.4628         calculate D2E/DX2 analytically  !
 ! R5    R(2,8)                  1.0799         calculate D2E/DX2 analytically  !
 ! R6    R(3,4)                  1.4628         calculate D2E/DX2 analytically  !
 ! R7    R(3,11)                 1.2288         calculate D2E/DX2 analytically  !
 ! R8    R(4,5)                  1.3501         calculate D2E/DX2 analytically  !
 ! R9    R(4,9)                  1.0799         calculate D2E/DX2 analytically  !
 ! R10   R(5,6)                  1.3687         calculate D2E/DX2 analytically  !
 ! R11   R(5,10)                 1.0805         calculate D2E/DX2 analytically  !
 ! R12   R(6,12)                 1.0039         calculate D2E/DX2 analytically  !
 ! A1    A(2,1,6)              121.2398         calculate D2E/DX2 analytically  !
 ! A2    A(2,1,7)              123.1191         calculate D2E/DX2 analytically  !
 ! A3    A(6,1,7)              115.6411         calculate D2E/DX2 analytically  !
 ! A4    A(1,2,3)              121.6354         calculate D2E/DX2 analytically  !
 ! A5    A(1,2,8)              120.2238         calculate D2E/DX2 analytically  !
 ! A6    A(3,2,8)              118.1408         calculate D2E/DX2 analytically  !
 ! A7    A(2,3,4)              113.6821         calculate D2E/DX2 analytically  !
 ! A8    A(2,3,11)             123.1589         calculate D2E/DX2 analytically  !
 ! A9    A(4,3,11)             123.1589         calculate D2E/DX2 analytically  !
 ! A10   A(3,4,5)              121.6354         calculate D2E/DX2 analytically  !
 ! A11   A(3,4,9)              118.1408         calculate D2E/DX2 analytically  !
 ! A12   A(5,4,9)              120.2238         calculate D2E/DX2 analytically  !
 ! A13   A(4,5,6)              121.2398         calculate D2E/DX2 analytically  !
 ! A14   A(4,5,10)             123.1191         calculate D2E/DX2 analytically  !
 ! A15   A(6,5,10)             115.6411         calculate D2E/DX2 analytically  !
 ! A16   A(1,6,5)              120.5676         calculate D2E/DX2 analytically  !
 ! A17   A(1,6,12)             119.7162         calculate D2E/DX2 analytically  !
 ! A18   A(5,6,12)             119.7162         calculate D2E/DX2 analytically  !
 ! D1    D(6,1,2,3)              0.0192         calculate D2E/DX2 analytically  !
 ! D2    D(6,1,2,8)           -179.9917         calculate D2E/DX2 analytically  !
 ! D3    D(7,1,2,3)           -179.9833         calculate D2E/DX2 analytically  !
 ! D4    D(7,1,2,8)              0.0057         calculate D2E/DX2 analytically  !
 ! D5    D(2,1,6,5)              0.015          calculate D2E/DX2 analytically  !
 ! D6    D(2,1,6,12)           179.9827         calculate D2E/DX2 analytically  !
 ! D7    D(7,1,6,5)           -179.9826         calculate D2E/DX2 analytically  !
 ! D8    D(7,1,6,12)            -0.0149         calculate D2E/DX2 analytically  !
 ! D9    D(1,2,3,4)             -0.0487         calculate D2E/DX2 analytically  !
 ! D10   D(1,2,3,11)          -179.929          calculate D2E/DX2 analytically  !
 ! D11   D(8,2,3,4)            179.962          calculate D2E/DX2 analytically  !
 ! D12   D(8,2,3,11)             0.0817         calculate D2E/DX2 analytically  !
 ! D13   D(2,3,4,5)              0.0487         calculate D2E/DX2 analytically  !
 ! D14   D(2,3,4,9)           -179.962          calculate D2E/DX2 analytically  !
 ! D15   D(11,3,4,5)           179.929          calculate D2E/DX2 analytically  !
 ! D16   D(11,3,4,9)            -0.0817         calculate D2E/DX2 analytically  !
 ! D17   D(3,4,5,6)             -0.0192         calculate D2E/DX2 analytically  !
 ! D18   D(3,4,5,10)           179.9833         calculate D2E/DX2 analytically  !
 ! D19   D(9,4,5,6)            179.9917         calculate D2E/DX2 analytically  !
 ! D20   D(9,4,5,10)            -0.0057         calculate D2E/DX2 analytically  !
 ! D21   D(4,5,6,1)             -0.015          calculate D2E/DX2 analytically  !
 ! D22   D(4,5,6,12)          -179.9827         calculate D2E/DX2 analytically  !
 ! D23   D(10,5,6,1)           179.9826         calculate D2E/DX2 analytically  !
 ! D24   D(10,5,6,12)            0.0149         calculate D2E/DX2 analytically  !
 --------------------------------------------------------------------------------
 Trust Radius=3.00D-01 FncErr=1.00D-07 GrdErr=1.00D-06
 Number of steps in this run=     64 maximum allowed number of steps=    100.
 GradGradGradGradGradGradGradGradGradGradGradGradGradGradGradGradGradGrad

 Leave Link  103 at Sun Sep  5 14:47:30 2021, MaxMem=  1342177280 cpu:         0.6
 (Enter /gpfs/share/home/1801110325/software/g09e01/l202.exe)
                          Input orientation:                          
 ---------------------------------------------------------------------
 Center     Atomic      Atomic             Coordinates (Angstroms)
 Number     Number       Type             X           Y           Z
 ---------------------------------------------------------------------
      1          6           0       -0.000205   -1.045618    1.188687
      2          6           0       -0.000227    0.303959    1.224583
      3          6           0       -0.000820    1.104050    0.000000
      4          6           0       -0.000227    0.303959   -1.224583
      5          6           0       -0.000205   -1.045618   -1.188687
      6          7           0       -0.000345   -1.724079   -0.000000
      7          1           0       -0.000037   -1.659839    2.077634
      8          1           0        0.000020    0.822536    2.171771
      9          1           0        0.000020    0.822536   -2.171771
     10          1           0       -0.000037   -1.659839   -2.077634
     11          8           0        0.000419    2.332889    0.000000
     12          1           0       -0.000062   -2.728016   -0.000000
 ---------------------------------------------------------------------
                    Distance matrix (angstroms):
                    1          2          3          4          5
     1  C    0.000000
     2  C    1.350054   0.000000
     3  C    2.456430   1.462788   0.000000
     4  C    2.765001   2.449165   1.462788   0.000000
     5  C    2.377375   2.765001   2.456430   1.350054   0.000000
     6  N    1.368681   2.369080   2.828128   2.369080   1.368681
     7  H    1.080506   2.141074   3.457693   3.842022   3.323571
     8  H    2.111031   1.079856   2.189941   3.435715   3.844825
     9  H    3.844825   3.435715   2.189941   1.079856   2.111031
    10  H    3.323571   3.842022   3.457693   2.141074   1.080506
    11  O    3.581520   2.369844   1.228840   2.369844   3.581520
    12  H    2.059962   3.269935   3.832066   3.269935   2.059962
                    6          7          8          9         10
     6  N    0.000000
     7  H    2.078627   0.000000
     8  H    3.346914   2.484158   0.000000
     9  H    3.346914   4.921344   4.343542   0.000000
    10  H    2.078627   4.155268   4.921344   2.484158   0.000000
    11  O    4.056968   4.500937   2.645328   2.645328   4.500937
    12  H    1.003938   2.336144   4.162092   4.162092   2.336144
                   11         12
    11  O    0.000000
    12  H    5.060906   0.000000
 Stoichiometry    C5H5NO
 Framework group  CS[SG(CHNO),X(C4H4)]
 Deg. of freedom    17
 Full point group                 CS      NOp   2
 RotChk:  IX=3 Diff= 1.57D-16
 Largest Abelian subgroup         CS      NOp   2
 Largest concise Abelian subgroup CS      NOp   2
                         Standard orientation:                         
 ---------------------------------------------------------------------
 Center     Atomic      Atomic             Coordinates (Angstroms)
 Number     Number       Type             X           Y           Z
 ---------------------------------------------------------------------
      1          6           0        0.000037    1.043944    1.188687
      2          6           0        0.000037   -0.305632    1.224583
      3          6           0        0.000617   -1.105723    0.000000
      4          6           0        0.000037   -0.305632   -1.224583
      5          6           0        0.000037    1.043944   -1.188687
      6          7           0        0.000189    1.722405   -0.000000
      7          1           0       -0.000121    1.658165    2.077634
      8          1           0       -0.000219   -0.824209    2.171771
      9          1           0       -0.000219   -0.824209   -2.171771
     10          1           0       -0.000121    1.658165   -2.077634
     11          8           0       -0.000643   -2.334562    0.000000
     12          1           0       -0.000078    2.726343   -0.000000
 ---------------------------------------------------------------------
 Rotational constants (GHZ):      5.7357987      2.7172251      1.8437730
 Leave Link  202 at Sun Sep  5 14:47:30 2021, MaxMem=  1342177280 cpu:         0.9
 (Enter /gpfs/share/home/1801110325/software/g09e01/l301.exe)
 General basis read from cards:  (5D, 7F)
 Centers:       7      8      9     10     12
 S 4 1.00
     Exponent=  7.5423000000D+01 Coefficients=  2.4065000000D-03
     Exponent=  1.1350000000D+01 Coefficients=  1.8487000000D-02
     Exponent=  2.5993000000D+00 Coefficients=  8.9742000000D-02
     Exponent=  7.3513000000D-01 Coefficients=  2.8111000000D-01
 S 1 1.00
     Exponent=  2.3167000000D-01 Coefficients=  1.0000000000D+00
 S 1 1.00
     Exponent=  7.4147000000D-02 Coefficients=  1.0000000000D+00
 P 1 1.00
     Exponent=  1.6000000000D+00 Coefficients=  1.0000000000D+00
 P 1 1.00
     Exponent=  4.5000000000D-01 Coefficients=  1.0000000000D+00
 D 1 1.00
     Exponent=  1.2500000000D+00 Coefficients=  1.0000000000D+00
 ****
 Centers:       1      2      3      4      5
 S 7 1.00
     Exponent=  7.8571000000D+03 Coefficients=  5.6825000000D-04
     Exponent=  1.1787000000D+03 Coefficients=  4.3915000000D-03
     Exponent=  2.6832000000D+02 Coefficients=  2.2504000000D-02
     Exponent=  7.5948000000D+01 Coefficients=  8.6653000000D-02
     Exponent=  2.4559000000D+01 Coefficients=  2.4405000000D-01
     Exponent=  8.6212000000D+00 Coefficients=  4.4148000000D-01
     Exponent=  3.1278000000D+00 Coefficients=  3.5332000000D-01
 S 7 1.00
     Exponent=  1.1787000000D+03 Coefficients= -5.9492000000D-07
     Exponent=  2.6832000000D+02 Coefficients= -6.2748000000D-05
     Exponent=  7.5948000000D+01 Coefficients= -7.5773000000D-04
     Exponent=  2.4559000000D+01 Coefficients= -7.3308000000D-03
     Exponent=  8.6212000000D+00 Coefficients= -3.8932000000D-02
     Exponent=  3.1278000000D+00 Coefficients= -8.8908000000D-02
     Exponent=  8.2202000000D-01 Coefficients=  2.1689000000D-01
 S 1 1.00
     Exponent=  3.3017000000D-01 Coefficients=  1.0000000000D+00
 S 1 1.00
     Exponent=  1.1463000000D-01 Coefficients=  1.0000000000D+00
 P 4 1.00
     Exponent=  3.3775000000D+01 Coefficients=  6.0294000000D-03
     Exponent=  7.6766000000D+00 Coefficients=  4.3228000000D-02
     Exponent=  2.2357000000D+00 Coefficients=  1.6301000000D-01
     Exponent=  7.6447000000D-01 Coefficients=  3.6504000000D-01
 P 1 1.00
     Exponent=  2.6232000000D-01 Coefficients=  1.0000000000D+00
 P 1 1.00
     Exponent=  8.4638000000D-02 Coefficients=  1.0000000000D+00
 D 1 1.00
     Exponent=  1.4000000000D+00 Coefficients=  1.0000000000D+00
 D 1 1.00
     Exponent=  4.5000000000D-01 Coefficients=  1.0000000000D+00
 F 1 1.00
     Exponent=  9.5000000000D-01 Coefficients=  1.0000000000D+00
 ****
 Centers:       6
 S 7 1.00
     Exponent=  1.1101000000D+04 Coefficients=  5.4570000000D-04
     Exponent=  1.6653000000D+03 Coefficients=  4.2181000000D-03
     Exponent=  3.7908000000D+02 Coefficients=  2.1645000000D-02
     Exponent=  1.0730000000D+02 Coefficients=  8.3776000000D-02
     Exponent=  3.4747000000D+01 Coefficients=  2.3881000000D-01
     Exponent=  1.2249000000D+01 Coefficients=  4.3994000000D-01
     Exponent=  4.4743000000D+00 Coefficients=  3.6364000000D-01
 S 7 1.00
     Exponent=  1.6653000000D+03 Coefficients= -1.5006000000D-06
     Exponent=  3.7908000000D+02 Coefficients= -5.8753000000D-05
     Exponent=  1.0730000000D+02 Coefficients= -7.7453000000D-04
     Exponent=  3.4747000000D+01 Coefficients= -7.2161000000D-03
     Exponent=  1.2249000000D+01 Coefficients= -3.9338000000D-02
     Exponent=  4.4743000000D+00 Coefficients= -9.0611000000D-02
     Exponent=  1.2404000000D+00 Coefficients=  1.9882000000D-01
 S 1 1.00
     Exponent=  4.8743000000D-01 Coefficients=  1.0000000000D+00
 S 1 1.00
     Exponent=  1.6484000000D-01 Coefficients=  1.0000000000D+00
 P 4 1.00
     Exponent=  4.7934000000D+01 Coefficients=  6.1706000000D-03
     Exponent=  1.0999000000D+01 Coefficients=  4.4260000000D-02
     Exponent=  3.2472000000D+00 Coefficients=  1.6825000000D-01
     Exponent=  1.1114000000D+00 Coefficients=  3.6848000000D-01
 P 1 1.00
     Exponent=  3.7988000000D-01 Coefficients=  1.0000000000D+00
 P 1 1.00
     Exponent=  1.2068000000D-01 Coefficients=  1.0000000000D+00
 D 1 1.00
     Exponent=  1.8000000000D+00 Coefficients=  1.0000000000D+00
 D 1 1.00
     Exponent=  5.5000000000D-01 Coefficients=  1.0000000000D+00
 F 1 1.00
     Exponent=  1.0200000000D+00 Coefficients=  1.0000000000D+00
 ****
 Centers:      11
 S 7 1.00
     Exponent=  1.4782000000D+04 Coefficients=  5.3519000000D-04
     Exponent=  2.2173000000D+03 Coefficients=  4.1375000000D-03
     Exponent=  5.0474000000D+02 Coefficients=  2.1245000000D-02
     Exponent=  1.4287000000D+02 Coefficients=  8.2453000000D-02
     Exponent=  4.6300000000D+01 Coefficients=  2.3671000000D-01
     Exponent=  1.6337000000D+01 Coefficients=  4.4039000000D-01
     Exponent=  5.9828000000D+00 Coefficients=  3.6465000000D-01
 S 7 1.00
     Exponent=  2.2173000000D+03 Coefficients= -1.9275000000D-06
     Exponent=  5.0474000000D+02 Coefficients= -5.7964000000D-05
     Exponent=  1.4287000000D+02 Coefficients= -7.9494000000D-04
     Exponent=  4.6300000000D+01 Coefficients= -7.3125000000D-03
     Exponent=  1.6337000000D+01 Coefficients= -4.0574000000D-02
     Exponent=  5.9828000000D+00 Coefficients= -9.1594000000D-02
     Exponent=  1.6718000000D+00 Coefficients=  2.0940000000D-01
 S 1 1.00
     Exponent=  6.4662000000D-01 Coefficients=  1.0000000000D+00
 S 1 1.00
     Exponent=  2.1669000000D-01 Coefficients=  1.0000000000D+00
 P 4 1.00
     Exponent=  6.0424000000D+01 Coefficients=  6.8949000000D-03
     Exponent=  1.3935000000D+01 Coefficients=  4.9005000000D-02
     Exponent=  4.1531000000D+00 Coefficients=  1.8255000000D-01
     Exponent=  1.4158000000D+00 Coefficients=  3.7633000000D-01
 P 1 1.00
     Exponent=  4.7549000000D-01 Coefficients=  1.0000000000D+00
 P 1 1.00
     Exponent=  1.4529000000D-01 Coefficients=  1.0000000000D+00
 D 1 1.00
     Exponent=  2.2000000000D+00 Coefficients=  1.0000000000D+00
 D 1 1.00
     Exponent=  6.5000000000D-01 Coefficients=  1.0000000000D+00
 F 1 1.00
     Exponent=  1.1000000000D+00 Coefficients=  1.0000000000D+00
 ****
 Ernie: Thresh=  0.10000D-02 Tol=  0.10000D-05 Strict=F.
 Ernie:  7 primitive shells out of 220 were deleted.
 There are   183 symmetry adapted cartesian basis functions of A'  symmetry.
 There are   137 symmetry adapted cartesian basis functions of A"  symmetry.
 There are   158 symmetry adapted basis functions of A'  symmetry.
 There are   122 symmetry adapted basis functions of A"  symmetry.
   280 basis functions,   475 primitive gaussians,   320 cartesian basis functions
    25 alpha electrons       25 beta electrons
       nuclear repulsion energy       274.4117481266 Hartrees.
 IExCor= 2523 DFT=T Ex+Corr=TPSSh ExCW=0 ScaHFX=  0.100000
 ScaDFX=  0.900000  0.900000  1.000000  1.000000 ScalE2=  1.000000  1.000000
 IRadAn=      0 IRanWt=     -1 IRanGd=            0 ICorTp=0 IEmpDi=  4
 NAtoms=   12 NActive=   12 NUniq=    8 SFac= 2.25D+00 NAtFMM=   60 NAOKFM=F Big=F
 Integral buffers will be    131072 words long.
 Raffenetti 2 integral format.
 Two-electron integral symmetry is turned on.
 Leave Link  301 at Sun Sep  5 14:47:30 2021, MaxMem=  1342177280 cpu:         2.6
 (Enter /gpfs/share/home/1801110325/software/g09e01/l302.exe)
 NPDir=0 NMtPBC=     1 NCelOv=     1 NCel=       1 NClECP=     1 NCelD=      1
         NCelK=      1 NCelE2=     1 NClLst=     1 CellRange=     0.0.
 One-electron integrals computed using PRISM.
 One-electron integral symmetry used in STVInt
 NBasis=   280 RedAO= T EigKep=  1.79D-04  NBF=   158   122
 NBsUse=   280 1.00D-06 EigRej= -1.00D+00 NBFU=   158   122
 Precomputing XC quadrature grid using
 IXCGrd= 4 IRadAn=           0 IRanWt=          -1 IRanGd=           0 AccXCQ= 0.00D+00.
 Generated NRdTot=       0 NPtTot=           0 NUsed=           0 NTot=          32
 NSgBfM=   320   320   320   320   320 MxSgAt=    12 MxSgA2=    12.
 Leave Link  302 at Sun Sep  5 14:47:31 2021, MaxMem=  1342177280 cpu:         1.4
 (Enter /gpfs/share/home/1801110325/software/g09e01/l303.exe)
 DipDrv:  MaxL=1.
 Leave Link  303 at Sun Sep  5 14:47:31 2021, MaxMem=  1342177280 cpu:         0.2
 (Enter /gpfs/share/home/1801110325/software/g09e01/l401.exe)
 ExpMin= 7.41D-02 ExpMax= 1.48D+04 ExpMxC= 5.05D+02 IAcc=2 IRadAn=         4 AccDes= 0.00D+00
 Harris functional with IExCor= 1009 and IRadAn=       4 diagonalized for initial guess.
 HarFok:  IExCor= 1009 AccDes= 0.00D+00 IRadAn=         4 IDoV= 1 UseB2=F ITyADJ=14
 ICtDFT=  3500011 ScaDFX=  1.000000  1.000000  1.000000  1.000000
 FoFCou: FMM=F IPFlag=           0 FMFlag=      100000 FMFlg1=           0
         NFxFlg=           0 DoJE=T BraDBF=F KetDBF=T FulRan=T
         wScrn=  0.000000 ICntrl=     500 IOpCl=  0 I1Cent=   200000004 NGrid=           0
         NMat0=    1 NMatS0=      1 NMatT0=    0 NMatD0=    1 NMtDS0=    0 NMtDT0=    0
 Petite list used in FoFCou.
 Harris En= -323.377715136293    
 JPrj=0 DoOrth=F DoCkMO=F.
 Initial guess orbital symmetries:
       Occupied  (A') (A') (A") (A') (A") (A') (A') (A') (A') (A')
                 (A") (A") (A') (A') (A") (A') (A') (A") (A') (A')
                 (A") (A') (A") (A") (A')
       Virtual   (A') (A") (A') (A') (A") (A') (A') (A") (A') (A')
                 (A") (A') (A') (A") (A") (A") (A') (A') (A") (A')
                 (A") (A') (A") (A') (A') (A') (A") (A') (A") (A')
                 (A') (A") (A') (A') (A') (A") (A') (A") (A") (A')
                 (A") (A') (A') (A") (A') (A") (A') (A") (A") (A')
                 (A') (A") (A") (A') (A') (A') (A') (A") (A') (A')
                 (A') (A') (A") (A') (A") (A") (A') (A') (A") (A')
                 (A") (A") (A") (A') (A") (A') (A') (A") (A') (A")
                 (A') (A') (A") (A") (A') (A') (A') (A') (A") (A')
                 (A") (A") (A') (A") (A") (A') (A') (A") (A') (A")
                 (A') (A') (A") (A") (A') (A") (A') (A') (A") (A')
                 (A') (A") (A') (A") (A") (A') (A') (A') (A") (A")
                 (A") (A') (A') (A") (A') (A") (A') (A") (A') (A")
                 (A') (A") (A') (A") (A') (A') (A') (A") (A') (A')
                 (A") (A") (A") (A') (A") (A') (A') (A') (A') (A")
                 (A') (A') (A') (A") (A") (A") (A') (A") (A") (A')
                 (A') (A") (A') (A") (A') (A") (A") (A') (A") (A")
                 (A') (A') (A") (A') (A") (A') (A") (A') (A') (A')
                 (A") (A') (A") (A') (A') (A") (A") (A') (A') (A")
                 (A") (A") (A') (A') (A") (A') (A") (A') (A") (A')
                 (A') (A') (A') (A") (A") (A") (A") (A') (A') (A')
                 (A') (A') (A") (A") (A") (A') (A") (A') (A") (A')
                 (A') (A") (A") (A') (A") (A") (A') (A") (A') (A")
                 (A') (A') (A") (A') (A') (A') (A") (A") (A") (A')
                 (A') (A') (A") (A') (A") (A') (A') (A") (A') (A')
                 (A") (A') (A") (A') (A')
 The electronic state of the initial guess is 1-A'.
 Leave Link  401 at Sun Sep  5 14:47:32 2021, MaxMem=  1342177280 cpu:         3.1
 (Enter /gpfs/share/home/1801110325/software/g09e01/l502.exe)
 Closed shell SCF:
 Using DIIS extrapolation, IDIIS=  1040.
 Integral symmetry usage will be decided dynamically.
 Keep R1 ints in memory in symmetry-blocked form, NReq=1161333198.
 IVT=      330378 IEndB=      330378 NGot=  1342177280 MDV=   954681833
 LenX=   954681833 LenY=   954578992
 Requested convergence on RMS density matrix=1.00D-08 within 128 cycles.
 Requested convergence on MAX density matrix=1.00D-06.
 Requested convergence on             energy=1.00D-06.
 No special actions if energy rises.
 FoFCou: FMM=F IPFlag=           0 FMFlag=           0 FMFlg1=           0
         NFxFlg=           0 DoJE=F BraDBF=F KetDBF=F FulRan=T
         wScrn=  0.000000 ICntrl=     600 IOpCl=  0 I1Cent=           0 NGrid=           0
         NMat0=    1 NMatS0=  39340 NMatT0=    0 NMatD0=    1 NMtDS0=    0 NMtDT0=    0
 Petite list used in FoFCou.

 Cycle   1  Pass 1  IDiag  1:
 E= -323.454249920177    
 DIIS: error= 3.03D-02 at cycle   1 NSaved=   1.
 NSaved= 1 IEnMin= 1 EnMin= -323.454249920177     IErMin= 1 ErrMin= 3.03D-02
 ErrMax= 3.03D-02  0.00D+00 EMaxC= 1.00D-01 BMatC= 2.08D-01 BMatP= 2.08D-01
 IDIUse=3 WtCom= 6.97D-01 WtEn= 3.03D-01
 Coeff-Com:  0.100D+01
 Coeff-En:   0.100D+01
 Coeff:      0.100D+01
 Gap=     0.020 Goal=   None    Shift=    0.000
 GapD=    0.020 DampG=0.250 DampE=0.500 DampFc=0.2500 IDamp=-1.
 Damping current iteration by 2.50D-01
 RMSDP=2.01D-02 MaxDP=2.72D+00              OVMax= 6.69D-01

 Cycle   2  Pass 1  IDiag  1:
 E= -323.376596719570     Delta-E=        0.077653200607 Rises=F Damp=T
 DIIS: error= 1.46D-02 at cycle   2 NSaved=   2.
 NSaved= 2 IEnMin= 1 EnMin= -323.454249920177     IErMin= 2 ErrMin= 1.46D-02
 ErrMax= 1.46D-02  0.00D+00 EMaxC= 1.00D-01 BMatC= 5.75D-02 BMatP= 2.08D-01
 IDIUse=3 WtCom= 8.54D-01 WtEn= 1.46D-01
 Coeff-Com:  0.143D+00 0.857D+00
 Coeff-En:   0.663D+00 0.337D+00
 Coeff:      0.219D+00 0.781D+00
 Gap=     0.065 Goal=   None    Shift=    0.000
 RMSDP=5.15D-03 MaxDP=6.77D-01 DE= 7.77D-02 OVMax= 5.82D-01

 Cycle   3  Pass 1  IDiag  1:
 E= -323.466445897804     Delta-E=       -0.089849178235 Rises=F Damp=F
 DIIS: error= 3.21D-02 at cycle   3 NSaved=   3.
 NSaved= 3 IEnMin= 3 EnMin= -323.466445897804     IErMin= 2 ErrMin= 1.46D-02
 ErrMax= 3.21D-02  0.00D+00 EMaxC= 1.00D-01 BMatC= 1.62D-01 BMatP= 5.75D-02
 IDIUse=2 WtCom= 0.00D+00 WtEn= 1.00D+00
 EnCoef did     2 forward-backward iterations
 Coeff-En:   0.183D+00 0.306D+00 0.511D+00
 Coeff:      0.183D+00 0.306D+00 0.511D+00
 Gap=     0.153 Goal=   None    Shift=    0.000
 RMSDP=3.36D-03 MaxDP=1.27D-01 DE=-8.98D-02 OVMax= 5.07D-01

 Cycle   4  Pass 1  IDiag  1:
 E= -323.381215557046     Delta-E=        0.085230340758 Rises=F Damp=F
 DIIS: error= 4.02D-02 at cycle   4 NSaved=   4.
 NSaved= 4 IEnMin= 3 EnMin= -323.466445897804     IErMin= 2 ErrMin= 1.46D-02
 ErrMax= 4.02D-02  0.00D+00 EMaxC= 1.00D-01 BMatC= 2.79D-01 BMatP= 5.75D-02
 IDIUse=2 WtCom= 0.00D+00 WtEn= 1.00D+00
 EnCoef did     4 forward-backward iterations
 Coeff-En:   0.660D-01 0.000D+00 0.517D+00 0.417D+00
 Coeff:      0.660D-01 0.000D+00 0.517D+00 0.417D+00
 Gap=     0.162 Goal=   None    Shift=    0.000
 RMSDP=2.24D-03 MaxDP=9.96D-02 DE= 8.52D-02 OVMax= 2.80D-01

 Cycle   5  Pass 1  IDiag  1:
 E= -323.639214421462     Delta-E=       -0.257998864415 Rises=F Damp=F
 DIIS: error= 5.63D-03 at cycle   5 NSaved=   5.
 NSaved= 5 IEnMin= 5 EnMin= -323.639214421462     IErMin= 5 ErrMin= 5.63D-03
 ErrMax= 5.63D-03  0.00D+00 EMaxC= 1.00D-01 BMatC= 1.04D-02 BMatP= 5.75D-02
 IDIUse=3 WtCom= 9.44D-01 WtEn= 5.63D-02
 Coeff-Com: -0.921D-01 0.183D+00 0.238D+00 0.893D-01 0.581D+00
 Coeff-En:   0.000D+00 0.000D+00 0.000D+00 0.000D+00 0.100D+01
 Coeff:     -0.869D-01 0.173D+00 0.225D+00 0.842D-01 0.605D+00
 Gap=     0.181 Goal=   None    Shift=    0.000
 RMSDP=3.74D-04 MaxDP=2.31D-02 DE=-2.58D-01 OVMax= 4.95D-02

 Cycle   6  Pass 1  IDiag  1:
 E= -323.644488791884     Delta-E=       -0.005274370422 Rises=F Damp=F
 DIIS: error= 4.12D-03 at cycle   6 NSaved=   6.
 NSaved= 6 IEnMin= 6 EnMin= -323.644488791884     IErMin= 6 ErrMin= 4.12D-03
 ErrMax= 4.12D-03  0.00D+00 EMaxC= 1.00D-01 BMatC= 3.16D-03 BMatP= 1.04D-02
 IDIUse=3 WtCom= 9.59D-01 WtEn= 4.12D-02
 Coeff-Com: -0.111D+00 0.132D+00 0.397D-01-0.473D-02 0.340D+00 0.604D+00
 Coeff-En:   0.000D+00 0.000D+00 0.000D+00 0.000D+00 0.211D+00 0.789D+00
 Coeff:     -0.106D+00 0.127D+00 0.381D-01-0.454D-02 0.334D+00 0.611D+00
 Gap=     0.178 Goal=   None    Shift=    0.000
 RMSDP=1.39D-04 MaxDP=7.91D-03 DE=-5.27D-03 OVMax= 1.72D-02

 Cycle   7  Pass 1  IDiag  1:
 E= -323.647251154304     Delta-E=       -0.002762362420 Rises=F Damp=F
 DIIS: error= 2.86D-03 at cycle   7 NSaved=   7.
 NSaved= 7 IEnMin= 7 EnMin= -323.647251154304     IErMin= 7 ErrMin= 2.86D-03
 ErrMax= 2.86D-03  0.00D+00 EMaxC= 1.00D-01 BMatC= 1.01D-03 BMatP= 3.16D-03
 IDIUse=3 WtCom= 9.71D-01 WtEn= 2.86D-02
 Coeff-Com: -0.734D-01 0.858D-01 0.347D-02 0.177D-02 0.160D+00 0.305D+00
 Coeff-Com:  0.517D+00
 Coeff-En:   0.000D+00 0.000D+00 0.000D+00 0.000D+00 0.000D+00 0.000D+00
 Coeff-En:   0.100D+01
 Coeff:     -0.713D-01 0.834D-01 0.337D-02 0.172D-02 0.156D+00 0.296D+00
 Coeff:      0.531D+00
 Gap=     0.176 Goal=   None    Shift=    0.000
 RMSDP=5.66D-05 MaxDP=2.36D-03 DE=-2.76D-03 OVMax= 7.19D-03

 Cycle   8  Pass 1  IDiag  1:
 E= -323.647869727589     Delta-E=       -0.000618573285 Rises=F Damp=F
 DIIS: error= 1.78D-03 at cycle   8 NSaved=   8.
 NSaved= 8 IEnMin= 8 EnMin= -323.647869727589     IErMin= 8 ErrMin= 1.78D-03
 ErrMax= 1.78D-03  0.00D+00 EMaxC= 1.00D-01 BMatC= 3.96D-04 BMatP= 1.01D-03
 IDIUse=3 WtCom= 9.82D-01 WtEn= 1.78D-02
 Coeff-Com: -0.349D-01 0.430D-01-0.102D-01 0.660D-02 0.266D-01 0.231D-01
 Coeff-Com:  0.263D+00 0.683D+00
 Coeff-En:   0.000D+00 0.000D+00 0.000D+00 0.000D+00 0.000D+00 0.000D+00
 Coeff-En:   0.000D+00 0.100D+01
 Coeff:     -0.343D-01 0.422D-01-0.101D-01 0.649D-02 0.261D-01 0.227D-01
 Coeff:      0.258D+00 0.689D+00
 Gap=     0.174 Goal=   None    Shift=    0.000
 RMSDP=5.33D-05 MaxDP=1.44D-03 DE=-6.19D-04 OVMax= 9.16D-03

 Cycle   9  Pass 1  IDiag  1:
 E= -323.648273091306     Delta-E=       -0.000403363717 Rises=F Damp=F
 DIIS: error= 8.22D-04 at cycle   9 NSaved=   9.
 NSaved= 9 IEnMin= 9 EnMin= -323.648273091306     IErMin= 9 ErrMin= 8.22D-04
 ErrMax= 8.22D-04  0.00D+00 EMaxC= 1.00D-01 BMatC= 9.52D-05 BMatP= 3.96D-04
 IDIUse=3 WtCom= 9.92D-01 WtEn= 8.22D-03
 Coeff-Com: -0.114D-02 0.262D-02-0.575D-02 0.433D-02-0.298D-01-0.107D+00
 Coeff-Com: -0.231D+00 0.477D+00 0.890D+00
 Coeff-En:   0.000D+00 0.000D+00 0.000D+00 0.000D+00 0.000D+00 0.000D+00
 Coeff-En:   0.000D+00 0.000D+00 0.100D+01
 Coeff:     -0.113D-02 0.260D-02-0.570D-02 0.429D-02-0.296D-01-0.106D+00
 Coeff:     -0.229D+00 0.474D+00 0.891D+00
 Gap=     0.172 Goal=   None    Shift=    0.000
 RMSDP=4.04D-05 MaxDP=1.65D-03 DE=-4.03D-04 OVMax= 5.89D-03

 Cycle  10  Pass 1  IDiag  1:
 E= -323.648368281847     Delta-E=       -0.000095190540 Rises=F Damp=F
 DIIS: error= 7.95D-05 at cycle  10 NSaved=  10.
 NSaved=10 IEnMin=10 EnMin= -323.648368281847     IErMin=10 ErrMin= 7.95D-05
 ErrMax= 7.95D-05  0.00D+00 EMaxC= 1.00D-01 BMatC= 1.82D-06 BMatP= 9.52D-05
 IDIUse=1 WtCom= 1.00D+00 WtEn= 0.00D+00
 Coeff-Com:  0.433D-03 0.160D-03-0.191D-02 0.192D-02-0.138D-01-0.550D-01
 Coeff-Com: -0.149D+00 0.211D+00 0.508D+00 0.498D+00
 Coeff:      0.433D-03 0.160D-03-0.191D-02 0.192D-02-0.138D-01-0.550D-01
 Coeff:     -0.149D+00 0.211D+00 0.508D+00 0.498D+00
 Gap=     0.172 Goal=   None    Shift=    0.000
 RMSDP=3.21D-06 MaxDP=2.33D-04 DE=-9.52D-05 OVMax= 4.23D-04

 Cycle  11  Pass 1  IDiag  1:
 E= -323.648369733678     Delta-E=       -0.000001451831 Rises=F Damp=F
 DIIS: error= 2.24D-05 at cycle  11 NSaved=  11.
 NSaved=11 IEnMin=11 EnMin= -323.648369733678     IErMin=11 ErrMin= 2.24D-05
 ErrMax= 2.24D-05  0.00D+00 EMaxC= 1.00D-01 BMatC= 8.43D-08 BMatP= 1.82D-06
 IDIUse=1 WtCom= 1.00D+00 WtEn= 0.00D+00
 Coeff-Com:  0.816D-04-0.653D-04 0.304D-04 0.128D-03-0.230D-03-0.483D-02
 Coeff-Com: -0.219D-01 0.805D-02 0.740D-01 0.195D+00 0.749D+00
 Coeff:      0.816D-04-0.653D-04 0.304D-04 0.128D-03-0.230D-03-0.483D-02
 Coeff:     -0.219D-01 0.805D-02 0.740D-01 0.195D+00 0.749D+00
 Gap=     0.172 Goal=   None    Shift=    0.000
 RMSDP=7.33D-07 MaxDP=4.23D-05 DE=-1.45D-06 OVMax= 9.79D-05

 Cycle  12  Pass 1  IDiag  1:
 E= -323.648369811964     Delta-E=       -0.000000078286 Rises=F Damp=F
 DIIS: error= 2.62D-06 at cycle  12 NSaved=  12.
 NSaved=12 IEnMin=12 EnMin= -323.648369811964     IErMin=12 ErrMin= 2.62D-06
 ErrMax= 2.62D-06  0.00D+00 EMaxC= 1.00D-01 BMatC= 1.24D-09 BMatP= 8.43D-08
 IDIUse=1 WtCom= 1.00D+00 WtEn= 0.00D+00
 Coeff-Com: -0.384D-04 0.479D-04 0.567D-04-0.267D-04 0.391D-03 0.372D-03
 Coeff-Com:  0.121D-03-0.362D-02 0.228D-02 0.275D-01 0.170D+00 0.803D+00
 Coeff:     -0.384D-04 0.479D-04 0.567D-04-0.267D-04 0.391D-03 0.372D-03
 Coeff:      0.121D-03-0.362D-02 0.228D-02 0.275D-01 0.170D+00 0.803D+00
 Gap=     0.172 Goal=   None    Shift=    0.000
 RMSDP=1.16D-07 MaxDP=4.18D-06 DE=-7.83D-08 OVMax= 7.93D-06

 Cycle  13  Pass 1  IDiag  1:
 E= -323.648369812913     Delta-E=       -0.000000000949 Rises=F Damp=F
 DIIS: error= 6.17D-07 at cycle  13 NSaved=  13.
 NSaved=13 IEnMin=13 EnMin= -323.648369812913     IErMin=13 ErrMin= 6.17D-07
 ErrMax= 6.17D-07  0.00D+00 EMaxC= 1.00D-01 BMatC= 8.28D-11 BMatP= 1.24D-09
 IDIUse=1 WtCom= 1.00D+00 WtEn= 0.00D+00
 Coeff-Com: -0.405D-05 0.183D-05 0.175D-04-0.103D-04 0.852D-04 0.137D-03
 Coeff-Com:  0.384D-03-0.940D-03-0.170D-02 0.214D-02 0.180D-01 0.176D+00
 Coeff-Com:  0.806D+00
 Coeff:     -0.405D-05 0.183D-05 0.175D-04-0.103D-04 0.852D-04 0.137D-03
 Coeff:      0.384D-03-0.940D-03-0.170D-02 0.214D-02 0.180D-01 0.176D+00
 Coeff:      0.806D+00
 Gap=     0.172 Goal=   None    Shift=    0.000
 RMSDP=3.67D-08 MaxDP=1.51D-06 DE=-9.49D-10 OVMax= 5.36D-06

 Cycle  14  Pass 1  IDiag  1:
 E= -323.648369812983     Delta-E=       -0.000000000070 Rises=F Damp=F
 DIIS: error= 9.47D-08 at cycle  14 NSaved=  14.
 NSaved=14 IEnMin=14 EnMin= -323.648369812983     IErMin=14 ErrMin= 9.47D-08
 ErrMax= 9.47D-08  0.00D+00 EMaxC= 1.00D-01 BMatC= 2.18D-12 BMatP= 8.28D-11
 IDIUse=1 WtCom= 1.00D+00 WtEn= 0.00D+00
 Coeff-Com:  0.349D-06-0.385D-06 0.294D-05-0.253D-05 0.539D-05 0.114D-04
 Coeff-Com:  0.697D-04-0.573D-04-0.369D-03-0.151D-03-0.151D-02 0.838D-02
 Coeff-Com:  0.900D-01 0.904D+00
 Coeff:      0.349D-06-0.385D-06 0.294D-05-0.253D-05 0.539D-05 0.114D-04
 Coeff:      0.697D-04-0.573D-04-0.369D-03-0.151D-03-0.151D-02 0.838D-02
 Coeff:      0.900D-01 0.904D+00
 Gap=     0.172 Goal=   None    Shift=    0.000
 RMSDP=3.24D-09 MaxDP=1.15D-07 DE=-7.05D-11 OVMax= 3.60D-07

 SCF Done:  E(RTPSSh) =  -323.648369813     A.U. after   14 cycles
            NFock= 14  Conv=0.32D-08     -V/T= 2.0040
 KE= 3.223458406913D+02 PE=-1.303938884308D+03 EE= 3.835329256767D+02
 Leave Link  502 at Sun Sep  5 14:47:59 2021, MaxMem=  1342177280 cpu:       138.7
 (Enter /gpfs/share/home/1801110325/software/g09e01/l801.exe)
 DoSCS=F DFT=T ScalE2(SS,OS)=  1.000000  1.000000
 Range of M.O.s used for correlation:     1   280
 NBasis=   280 NAE=    25 NBE=    25 NFC=     0 NFV=     0
 NROrb=    280 NOA=    25 NOB=    25 NVA=   255 NVB=   255

 **** Warning!!: The largest alpha MO coefficient is  0.13311308D+02

 Leave Link  801 at Sun Sep  5 14:47:59 2021, MaxMem=  1342177280 cpu:         0.1
 (Enter /gpfs/share/home/1801110325/software/g09e01/l1101.exe)
 Using compressed storage, NAtomX=    12.
 Will process     13 centers per pass.
 Leave Link 1101 at Sun Sep  5 14:47:59 2021, MaxMem=  1342177280 cpu:         2.1
 (Enter /gpfs/share/home/1801110325/software/g09e01/l1102.exe)
 Symmetrizing basis deriv contribution to polar:
 IMax=3 JMax=2 DiffMx= 0.00D+00
 Leave Link 1102 at Sun Sep  5 14:48:00 2021, MaxMem=  1342177280 cpu:         0.2
 (Enter /gpfs/share/home/1801110325/software/g09e01/l1110.exe)
 Forming Gx(P) for the SCF density, NAtomX=    12.
 Integral derivatives from FoFJK, PRISM(SPDF).
 Do as many integral derivatives as possible in FoFJK.
 G2DrvN: MDV=    1342177080.
 G2DrvN: will do    13 centers at a time, making    1 passes.
 Calling FoFCou, ICntrl=  3107 FMM=F I1Cent=   0 AccDes= 1.00D-12.
 FoFJK:  IHMeth= 1 ICntrl=    3107 DoSepK=F KAlg= 0 I1Cent=   0 FoldK=F
 IRaf=         0 NMat=   1 IRICut=       1 DoRegI=T DoRafI=F ISym2E= 1.
 FoFCou: FMM=F IPFlag=           0 FMFlag=      100000 FMFlg1=           0
         NFxFlg=           0 DoJE=F BraDBF=F KetDBF=F FulRan=T
         wScrn=  0.000000 ICntrl=    3107 IOpCl=  0 I1Cent=           0 NGrid=           0
         NMat0=    1 NMatS0=      1 NMatT0=    0 NMatD0=    1 NMtDS0=    0 NMtDT0=    0
 Petite list used in FoFCou.
 End of G2Drv F.D. properties file   721 does not exist.
 End of G2Drv F.D. properties file   722 does not exist.
 End of G2Drv F.D. properties file   788 does not exist.
 Leave Link 1110 at Sun Sep  5 14:48:42 2021, MaxMem=  1342177280 cpu:       251.8
 (Enter /gpfs/share/home/1801110325/software/g09e01/l1002.exe)
 Minotr:  Closed shell wavefunction.
          IDoAtm=111111111111
          Direct CPHF calculation.
          Differentiating once with respect to nuclear coordinates.
          Using symmetry in CPHF.
          Requested convergence is 1.0D-08 RMS, and 1.0D-07 maximum.
          Secondary convergence is 1.0D-12 RMS, and 1.0D-12 maximum.
          NewPWx=T KeepS1=F KeepF1=F KeepIn=T MapXYZ=F SortEE=F KeepMc=T.
          MDV=    1342176876 using IRadAn=       2.
 Generate precomputed XC quadrature information.
 Keep R1 ints in memory in symmetry-blocked form, NReq=1161008005.
 FoFCou: FMM=F IPFlag=           0 FMFlag=           0 FMFlg1=           0
         NFxFlg=           0 DoJE=F BraDBF=F KetDBF=F FulRan=T
         wScrn=  0.000000 ICntrl=     600 IOpCl=  0 I1Cent=           0 NGrid=           0
         NMat0=    1 NMatS0=  39340 NMatT0=    0 NMatD0=    1 NMtDS0=    0 NMtDT0=    0
 Petite list used in FoFCou.
          Solving linear equations simultaneously, MaxMat=       0.
          There are    27 degrees of freedom in the 1st order CPHF.  IDoFFX=4 NUNeed=    27.
     24 vectors produced by pass  0 Test12= 2.36D-14 3.70D-09 XBig12= 2.22D-01 1.45D-01.
 AX will form    24 AO Fock derivatives at one time.
     24 vectors produced by pass  1 Test12= 2.36D-14 3.70D-09 XBig12= 2.27D-01 1.73D-01.
     24 vectors produced by pass  2 Test12= 2.36D-14 3.70D-09 XBig12= 3.57D-03 9.86D-03.
     24 vectors produced by pass  3 Test12= 2.36D-14 3.70D-09 XBig12= 3.75D-05 8.80D-04.
     24 vectors produced by pass  4 Test12= 2.36D-14 3.70D-09 XBig12= 1.46D-07 4.37D-05.
     24 vectors produced by pass  5 Test12= 2.36D-14 3.70D-09 XBig12= 4.19D-10 2.80D-06.
     12 vectors produced by pass  6 Test12= 2.36D-14 3.70D-09 XBig12= 6.16D-13 1.04D-07.
      1 vectors produced by pass  7 Test12= 2.36D-14 3.70D-09 XBig12= 9.76D-16 3.82D-09.
 InvSVY:  IOpt=1 It=  1 EMax= 2.78D-16
 Solved reduced A of dimension   157 with    27 vectors.
 FullF1:  Do perturbations    4 to    27.
 End of Minotr F.D. properties file   721 does not exist.
 End of Minotr F.D. properties file   722 does not exist.
 End of Minotr F.D. properties file   788 does not exist.
 Leave Link 1002 at Sun Sep  5 14:50:08 2021, MaxMem=  1342177280 cpu:       508.0
 (Enter /gpfs/share/home/1801110325/software/g09e01/l601.exe)
 Copying SCF densities to generalized density rwf, IOpCl= 0 IROHF=0.

 **********************************************************************

            Population analysis using the SCF density.

 **********************************************************************

 Orbital symmetries:
       Occupied  (A') (A') (A") (A') (A') (A") (A') (A') (A') (A')
                 (A") (A") (A') (A') (A") (A') (A") (A') (A') (A")
                 (A') (A') (A") (A') (A")
       Virtual   (A') (A") (A') (A") (A') (A") (A') (A') (A') (A")
                 (A') (A') (A') (A") (A") (A") (A') (A') (A") (A')
                 (A") (A') (A') (A") (A') (A') (A") (A') (A") (A')
                 (A') (A') (A") (A') (A') (A') (A") (A") (A") (A')
                 (A") (A') (A') (A") (A') (A") (A') (A") (A") (A')
                 (A') (A") (A') (A") (A') (A') (A') (A") (A') (A')
                 (A') (A") (A') (A") (A') (A") (A') (A') (A") (A")
                 (A') (A') (A") (A") (A") (A') (A') (A") (A") (A')
                 (A') (A") (A') (A") (A') (A') (A') (A') (A') (A")
                 (A") (A") (A') (A') (A") (A") (A') (A') (A") (A')
                 (A") (A') (A") (A") (A') (A") (A') (A') (A") (A')
                 (A') (A") (A') (A") (A") (A') (A') (A') (A") (A")
                 (A") (A') (A") (A') (A') (A") (A') (A") (A') (A")
                 (A') (A") (A') (A") (A') (A') (A') (A") (A') (A')
                 (A") (A") (A') (A") (A") (A') (A') (A') (A') (A")
                 (A') (A") (A') (A") (A') (A') (A") (A") (A") (A')
                 (A') (A') (A") (A") (A") (A') (A") (A') (A") (A")
                 (A') (A') (A") (A') (A') (A") (A") (A') (A') (A')
                 (A") (A') (A') (A") (A') (A") (A') (A') (A") (A")
                 (A") (A') (A") (A') (A") (A') (A') (A') (A") (A")
                 (A') (A') (A') (A") (A") (A") (A') (A") (A') (A')
                 (A') (A") (A') (A") (A") (A') (A") (A') (A') (A")
                 (A') (A") (A") (A") (A') (A") (A') (A") (A') (A')
                 (A") (A') (A") (A') (A') (A') (A") (A") (A") (A')
                 (A') (A') (A") (A') (A") (A') (A') (A") (A') (A')
                 (A") (A') (A") (A') (A')
 The electronic state is 1-A'.
 Alpha  occ. eigenvalues --  -18.99339 -14.32595 -10.17809 -10.17809 -10.17267
 Alpha  occ. eigenvalues --  -10.11781 -10.11781  -0.98333  -0.97044  -0.77333
 Alpha  occ. eigenvalues --   -0.77254  -0.63445  -0.60992  -0.57724  -0.49007
 Alpha  occ. eigenvalues --   -0.46658  -0.44331  -0.42904  -0.42455  -0.36595
 Alpha  occ. eigenvalues --   -0.36389  -0.35038  -0.27998  -0.21822  -0.20892
 Alpha virt. eigenvalues --   -0.03645  -0.03581  -0.01483   0.02913   0.04331
 Alpha virt. eigenvalues --    0.07265   0.07597   0.11021   0.12167   0.15081
 Alpha virt. eigenvalues --    0.15108   0.15322   0.16098   0.18638   0.18750
 Alpha virt. eigenvalues --    0.22091   0.22239   0.22338   0.27023   0.27364
 Alpha virt. eigenvalues --    0.27493   0.28715   0.29578   0.29650   0.30303
 Alpha virt. eigenvalues --    0.31599   0.33350   0.34546   0.35464   0.39521
 Alpha virt. eigenvalues --    0.42607   0.43791   0.44621   0.44979   0.48165
 Alpha virt. eigenvalues --    0.48841   0.50018   0.54310   0.54863   0.57396
 Alpha virt. eigenvalues --    0.58030   0.59597   0.63334   0.64790   0.69522
 Alpha virt. eigenvalues --    0.70303   0.71741   0.73779   0.76494   0.79432
 Alpha virt. eigenvalues --    0.79734   0.83545   0.88521   0.88911   0.89297
 Alpha virt. eigenvalues --    0.94141   0.97092   0.97807   0.98346   1.05324
 Alpha virt. eigenvalues --    1.08830   1.10292   1.10379   1.10658   1.12927
 Alpha virt. eigenvalues --    1.16384   1.17708   1.18919   1.19764   1.21316
 Alpha virt. eigenvalues --    1.23989   1.24028   1.25099   1.28060   1.33038
 Alpha virt. eigenvalues --    1.33441   1.33486   1.41160   1.41615   1.43899
 Alpha virt. eigenvalues --    1.44696   1.45965   1.46019   1.46243   1.53379
 Alpha virt. eigenvalues --    1.55627   1.57812   1.62624   1.63767   1.64468
 Alpha virt. eigenvalues --    1.66097   1.67660   1.73732   1.75410   1.76552
 Alpha virt. eigenvalues --    1.76786   1.81630   1.81733   1.82536   1.89148
 Alpha virt. eigenvalues --    1.90264   1.94146   1.95494   2.00514   2.03069
 Alpha virt. eigenvalues --    2.03406   2.09992   2.13016   2.17097   2.19744
 Alpha virt. eigenvalues --    2.20396   2.24907   2.25944   2.27990   2.40837
 Alpha virt. eigenvalues --    2.41674   2.50871   2.53370   2.66620   2.81001
 Alpha virt. eigenvalues --    2.86756   2.93375   2.96134   2.96344   3.13401
 Alpha virt. eigenvalues --    3.18844   3.21222   3.24219   3.26522   3.27996
 Alpha virt. eigenvalues --    3.28771   3.33148   3.34082   3.37416   3.38083
 Alpha virt. eigenvalues --    3.47361   3.49489   3.53227   3.55131   3.56866
 Alpha virt. eigenvalues --    3.62392   3.66892   3.67793   3.69074   3.69420
 Alpha virt. eigenvalues --    3.71152   3.72897   3.80439   3.87169   3.93830
 Alpha virt. eigenvalues --    3.96831   3.98549   3.98995   3.99617   4.00310
 Alpha virt. eigenvalues --    4.05086   4.05459   4.05963   4.10867   4.11720
 Alpha virt. eigenvalues --    4.13737   4.14800   4.16410   4.19096   4.20100
 Alpha virt. eigenvalues --    4.22064   4.22510   4.24416   4.25847   4.27399
 Alpha virt. eigenvalues --    4.28864   4.29654   4.30612   4.33975   4.34954
 Alpha virt. eigenvalues --    4.35387   4.37729   4.38215   4.41111   4.43202
 Alpha virt. eigenvalues --    4.45028   4.45685   4.50652   4.51471   4.51906
 Alpha virt. eigenvalues --    4.54569   4.57324   4.59795   4.60118   4.60512
 Alpha virt. eigenvalues --    4.66621   4.67429   4.67487   4.70008   4.75492
 Alpha virt. eigenvalues --    4.77217   4.81238   4.81606   4.81963   4.82206
 Alpha virt. eigenvalues --    4.94096   4.97902   4.98366   4.99542   5.00119
 Alpha virt. eigenvalues --    5.04522   5.11919   5.14022   5.17788   5.24734
 Alpha virt. eigenvalues --    5.25033   5.28844   5.31553   5.32517   5.36890
 Alpha virt. eigenvalues --    5.40506   5.41875   5.48864   5.51584   5.52805
 Alpha virt. eigenvalues --    5.53666   5.57700   5.62423   5.68123   5.69599
 Alpha virt. eigenvalues --    5.71452   5.76877   5.78303   5.81002   5.86396
 Alpha virt. eigenvalues --    5.86596   5.97273   6.01316   6.02699   6.07114
 Alpha virt. eigenvalues --    6.15539   6.17413   6.18244   6.23972   6.30769
 Alpha virt. eigenvalues --    6.46210   6.55288   6.60994   6.63621   6.89141
 Alpha virt. eigenvalues --    6.94545   7.03333   7.33654   9.60538  12.49328
 Alpha virt. eigenvalues --   12.68138  15.39700  17.05298  18.53092  22.76769
          Condensed to atoms (all electrons):
               1          2          3          4          5          6
     1  C    4.670818   0.549804  -0.031189  -0.036594  -0.075661   0.387677
     2  C    0.549804   4.978440   0.396935  -0.019897  -0.036594  -0.055793
     3  C   -0.031189   0.396935   4.375586   0.396935  -0.031189  -0.010834
     4  C   -0.036594  -0.019897   0.396935   4.978440   0.549804  -0.055793
     5  C   -0.075661  -0.036594  -0.031189   0.549804   4.670818   0.387677
     6  N    0.387677  -0.055793  -0.010834  -0.055793   0.387677   6.303721
     7  H    0.395548  -0.010679   0.003994  -0.006087   0.003900  -0.034531
     8  H   -0.037678   0.426225  -0.031938   0.015460  -0.002076   0.005047
     9  H   -0.002076   0.015460  -0.031938   0.426225  -0.037678   0.005047
    10  H    0.003900  -0.006087   0.003994  -0.010679   0.395548  -0.034531
    11  O    0.008892  -0.084394   0.574564  -0.084394   0.008892   0.000723
    12  H   -0.025788   0.006117  -0.000888   0.006117  -0.025788   0.413863
               7          8          9         10         11         12
     1  C    0.395548  -0.037678  -0.002076   0.003900   0.008892  -0.025788
     2  C   -0.010679   0.426225   0.015460  -0.006087  -0.084394   0.006117
     3  C    0.003994  -0.031938  -0.031938   0.003994   0.574564  -0.000888
     4  C   -0.006087   0.015460   0.426225  -0.010679  -0.084394   0.006117
     5  C    0.003900  -0.002076  -0.037678   0.395548   0.008892  -0.025788
     6  N   -0.034531   0.005047   0.005047  -0.034531   0.000723   0.413863
     7  H    0.600918  -0.006581   0.000315  -0.001404  -0.000893  -0.006866
     8  H   -0.006581   0.587676  -0.000073   0.000315   0.009903  -0.000558
     9  H    0.000315  -0.000073   0.587676  -0.006581   0.009903  -0.000558
    10  H   -0.001404   0.000315  -0.006581   0.600918  -0.000893  -0.006866
    11  O   -0.000893   0.009903   0.009903  -0.000893   8.042246   0.000085
    12  H   -0.006866  -0.000558  -0.000558  -0.006866   0.000085   0.489099
 Mulliken charges:
               1
     1  C    0.192346
     2  C   -0.159538
     3  C    0.385967
     4  C   -0.159538
     5  C    0.192346
     6  N   -0.312272
     7  H    0.062366
     8  H    0.034279
     9  H    0.034279
    10  H    0.062366
    11  O   -0.484633
    12  H    0.152031
 Sum of Mulliken charges =  -0.00000
 Mulliken charges with hydrogens summed into heavy atoms:
               1
     1  C    0.254712
     2  C   -0.125259
     3  C    0.385967
     4  C   -0.125259
     5  C    0.254712
     6  N   -0.160241
    11  O   -0.484633
 APT charges:
               1
     1  C   -0.155227
     2  C   -0.595873
     3  C   -0.258263
     4  C   -0.595873
     5  C   -0.155227
     6  N   -0.818386
     7  H    0.506424
     8  H    0.437651
     9  H    0.437651
    10  H    0.506424
    11  O   -0.052948
    12  H    0.743645
 Sum of APT charges =  -0.00000
 APT charges with hydrogens summed into heavy atoms:
               1
     1  C    0.351197
     2  C   -0.158222
     3  C   -0.258263
     4  C   -0.158222
     5  C    0.351197
     6  N   -0.074740
    11  O   -0.052948
 Electronic spatial extent (au):  <R**2>=            636.1860
 Charge=             -0.0000 electrons
 Dipole moment (field-independent basis, Debye):
    X=              0.0011    Y=              6.9212    Z=             -0.0000  Tot=              6.9212
 Quadrupole moment (field-independent basis, Debye-Ang):
   XX=            -42.9390   YY=            -42.3045   ZZ=            -34.5465
   XY=             -0.0052   XZ=             -0.0000   YZ=             -0.0000
 Traceless Quadrupole moment (field-independent basis, Debye-Ang):
   XX=             -3.0090   YY=             -2.3745   ZZ=              5.3836
   XY=             -0.0052   XZ=             -0.0000   YZ=             -0.0000
 Octapole moment (field-independent basis, Debye-Ang**2):
  XXX=             -0.0031  YYY=             56.7897  ZZZ=              0.0000  XYY=              0.0052
  XXY=             -2.1101  XXZ=              0.0000  XZZ=             -0.0048  YZZ=              3.5400
  YYZ=              0.0000  XYZ=             -0.0000
 Hexadecapole moment (field-independent basis, Debye-Ang**3):
 XXXX=            -46.5747 YYYY=           -488.7091 ZZZZ=           -262.2794 XXXY=             -0.0211
 XXXZ=             -0.0000 YYYX=             -0.0457 YYYZ=             -0.0000 ZZZX=             -0.0000
 ZZZY=              0.0000 XXYY=            -91.3170 XXZZ=            -63.7756 YYZZ=           -116.2592
 XXYZ=              0.0000 YYXZ=             -0.0000 ZZXY=             -0.0069
 N-N= 2.744117481266D+02 E-N=-1.303938878504D+03  KE= 3.223458406913D+02
 Symmetry A'   KE= 2.364604444263D+02
 Symmetry A"   KE= 8.588539626499D+01
  Exact polarizability:   0.000   0.000   0.000   0.000   0.000   0.000
 Approx polarizability:  59.033   0.024 190.195  -0.000  -0.000 107.592
 No NMR shielding tensors so no spin-rotation constants.
 Leave Link  601 at Sun Sep  5 14:50:08 2021, MaxMem=  1342177280 cpu:         1.5
 (Enter /gpfs/share/home/1801110325/software/g09e01/l701.exe)
 Compute integral second derivatives.
 ... and contract with generalized density number  0.
 Leave Link  701 at Sun Sep  5 14:50:09 2021, MaxMem=  1342177280 cpu:         2.0
 (Enter /gpfs/share/home/1801110325/software/g09e01/l702.exe)
 L702 exits ... SP integral derivatives will be done elsewhere.
 Leave Link  702 at Sun Sep  5 14:50:09 2021, MaxMem=  1342177280 cpu:         0.1
 (Enter /gpfs/share/home/1801110325/software/g09e01/l703.exe)
 Compute integral second derivatives, UseDBF=F ICtDFT=           0.
 Integral derivatives from FoFJK, PRISM(SPDF).
 Calling FoFJK, ICntrl=    100147 FMM=F ISym2X=1 I1Cent= 0 IOpClX= 0 NMat=1 NMatS=1 NMatT=0.
 FoFJK:  IHMeth= 1 ICntrl=  100147 DoSepK=F KAlg= 0 I1Cent=   0 FoldK=F
 IRaf=         0 NMat=   1 IRICut=       1 DoRegI=T DoRafI=F ISym2E= 1.
 FoFCou: FMM=F IPFlag=           0 FMFlag=      100000 FMFlg1=         800
         NFxFlg=           0 DoJE=F BraDBF=F KetDBF=F FulRan=T
         wScrn=  0.000000 ICntrl=  100147 IOpCl=  0 I1Cent=           0 NGrid=           0
         NMat0=    1 NMatS0=      1 NMatT0=    0 NMatD0=    1 NMtDS0=    0 NMtDT0=    0
 Petite list used in FoFCou.
 Leave Link  703 at Sun Sep  5 14:51:19 2021, MaxMem=  1342177280 cpu:       416.0
 (Enter /gpfs/share/home/1801110325/software/g09e01/l716.exe)
 Dipole        = 4.19184943D-04 2.72299750D+00-2.21931880D-15
 Polarizability= 0.00000000D+00 0.00000000D+00 0.00000000D+00
                 0.00000000D+00 0.00000000D+00 0.00000000D+00
 ***** Axes restored to original set *****
 -------------------------------------------------------------------
 Center     Atomic                   Forces (Hartrees/Bohr)
 Number     Number              X              Y              Z
 -------------------------------------------------------------------
      1        6          -0.000007270   -0.001205480    0.000642954
      2        6          -0.000091588    0.001828570   -0.001632532
      3        6           0.000277757   -0.004884548    0.000000000
      4        6          -0.000091588    0.001828570    0.001632532
      5        6          -0.000007270   -0.001205480   -0.000642954
      6        7          -0.000001413    0.000685139    0.000000000
      7        1           0.000011561   -0.000835378    0.000421543
      8        1           0.000001718    0.000190435    0.000882618
      9        1           0.000001718    0.000190435   -0.000882618
     10        1           0.000011561   -0.000835378   -0.000421543
     11        8          -0.000101516    0.005768635   -0.000000000
     12        1          -0.000003670   -0.001525521   -0.000000000
 -------------------------------------------------------------------
 Cartesian Forces:  Max     0.005768635 RMS     0.001482956
 Force constants in Cartesian coordinates: 
                1             2             3             4             5 
      1  0.127709D+00
      2 -0.621023D-04  0.815657D+00
      3  0.815006D-04 -0.550676D-01  0.683378D+00
      4 -0.504102D-01  0.245258D-04 -0.346453D-04  0.104162D+00
      5  0.375387D-04 -0.450427D+00  0.142013D-01  0.505537D-05  0.778560D+00
      6 -0.301183D-04 -0.173279D-01 -0.129695D+00  0.146156D-03  0.838920D-01
      7 -0.953405D-03 -0.226511D-04  0.560502D-05 -0.718291D-01  0.510564D-04
      8  0.151174D-04 -0.308713D-01  0.265574D-01  0.437445D-04 -0.109752D+00
      9  0.161289D-04  0.394257D-01  0.415180D-01 -0.857921D-04  0.217901D-01
     10 -0.113668D-02  0.645739D-05  0.618095D-05  0.758861D-02  0.000000D+00
     11 -0.488847D-05 -0.111479D-01 -0.205643D-01  0.000000D+00  0.290342D-01
     12 -0.153280D-05  0.296104D-02 -0.228814D-02  0.122109D-04 -0.846651D-02
     13  0.546505D-02  0.120305D-05 -0.445640D-05 -0.113668D-02 -0.488847D-05
     14  0.120305D-05  0.227865D-01  0.780765D-02  0.645739D-05 -0.111479D-01
     15  0.445640D-05 -0.780765D-02 -0.695476D-01 -0.618095D-05  0.205643D-01
     16 -0.442916D-01  0.229200D-04 -0.161278D-04  0.948171D-02 -0.182853D-04
     17 -0.424526D-05 -0.176543D+00 -0.930059D-01 -0.112955D-04 -0.401812D-01
     18 -0.352005D-04 -0.608461D-01 -0.270446D+00  0.469228D-05 -0.501151D-01
     19 -0.360829D-01  0.216851D-04 -0.431256D-04  0.707023D-02  0.338861D-05
     20  0.231762D-04 -0.155063D+00  0.138507D+00  0.150062D-04 -0.116808D-01
     21 -0.451536D-04  0.129590D+00 -0.246193D+00  0.255020D-05 -0.161703D-02
     22 -0.146706D-02  0.445784D-05  0.119575D-05 -0.311761D-01 -0.313569D-04
     23 -0.662551D-05 -0.985088D-02 -0.292760D-01 -0.270879D-04 -0.120662D+00
     24  0.270910D-05  0.309068D-02  0.318293D-02 -0.709623D-04 -0.122767D+00
     25 -0.155461D-03  0.425392D-05  0.130222D-05  0.361243D-02  0.164605D-05
     26  0.000000D+00 -0.664514D-03 -0.950208D-03  0.000000D+00 -0.206115D-02
     27  0.000000D+00 -0.159931D-02 -0.620088D-03  0.350159D-05 -0.391923D-02
     28  0.355043D-02 -0.371066D-05  0.000000D+00 -0.107078D-02  0.000000D+00
     29  0.000000D+00 -0.270215D-02  0.191885D-02  0.000000D+00  0.629660D-03
     30  0.205400D-05  0.634488D-02 -0.121754D-02  0.000000D+00 -0.422596D-03
     31  0.423683D-02  0.956978D-05  0.144514D-05  0.205970D-01 -0.409994D-04
     32  0.000000D+00  0.109522D-01  0.808833D-02 -0.560669D-04 -0.649502D-01
     33 -0.502679D-05 -0.449988D-02 -0.146279D-01  0.297339D-04  0.482256D-01
     34 -0.646408D-02 -0.660885D-05  0.000000D+00  0.311073D-02 -0.281905D-05
     35  0.191672D-05 -0.121264D-01  0.178362D-02  0.000000D+00  0.263819D-02
     36  0.105632D-04 -0.342639D-01  0.655588D-02 -0.163500D-05 -0.136554D-02
                6             7             8             9            10 
      6  0.634712D+00
      7 -0.642945D-04  0.189271D+00
      8  0.363756D-01  0.414236D-03  0.872552D+00
      9 -0.206738D+00  0.000000D+00  0.000000D+00  0.516914D+00
     10 -0.122109D-04 -0.718291D-01  0.437445D-04  0.857921D-04  0.104162D+00
     11  0.846651D-02  0.510564D-04 -0.109752D+00 -0.217901D-01  0.505537D-05
     12 -0.295168D-01  0.642945D-04 -0.363756D-01 -0.206738D+00 -0.146156D-03
     13  0.153280D-05 -0.953405D-03  0.151174D-04 -0.161289D-04 -0.504102D-01
     14 -0.296104D-02 -0.226511D-04 -0.308713D-01 -0.394257D-01  0.245258D-04
     15 -0.228814D-02 -0.560502D-05 -0.265574D-01  0.415180D-01  0.346453D-04
     16  0.993558D-05 -0.950249D-02  0.860681D-05  0.000000D+00  0.948171D-02
     17 -0.403045D-01  0.739611D-05  0.109615D-01  0.000000D+00 -0.112955D-04
     18  0.633505D-02  0.000000D+00  0.000000D+00 -0.517014D-01 -0.469227D-05
     19 -0.618040D-05  0.113808D-01 -0.278929D-05  0.331305D-05 -0.107078D-02
     20  0.281936D-01  0.000000D+00 -0.266661D-02 -0.575940D-02  0.000000D+00
     21  0.621230D-02 -0.141276D-05 -0.175307D-02  0.547495D-03  0.000000D+00
     22 -0.583992D-04  0.462805D-02 -0.104293D-04 -0.151195D-04  0.361243D-02
     23 -0.119653D+00  0.527492D-05  0.124835D-01  0.154187D-01  0.000000D+00
     24 -0.280827D+00 -0.652746D-05 -0.186422D-01 -0.181247D-01 -0.350159D-05
     25  0.446472D-05  0.462805D-02 -0.104293D-04  0.151195D-04 -0.311761D-01
     26 -0.317306D-02  0.527492D-05  0.124835D-01 -0.154187D-01 -0.270879D-04
     27 -0.394229D-02  0.652746D-05  0.186422D-01 -0.181247D-01  0.709623D-04
     28  0.000000D+00  0.113808D-01 -0.278930D-05 -0.331305D-05  0.707023D-02
     29 -0.277172D-03  0.000000D+00 -0.266661D-02  0.575940D-02  0.150062D-04
     30  0.935391D-03  0.141276D-05  0.175307D-02  0.547494D-03 -0.255020D-05
     31  0.106448D-04 -0.655042D-01 -0.513447D-03  0.000000D+00  0.205970D-01
     32  0.303086D-01 -0.487125D-03 -0.621269D+00  0.000000D+00 -0.560669D-04
     33  0.112373D-01  0.000000D+00  0.000000D+00 -0.977614D-01 -0.297339D-04
     34 -0.101156D-05 -0.716716D-03  0.000000D+00  0.000000D+00  0.311073D-02
     35 -0.353941D-02  0.000000D+00 -0.632353D-03  0.000000D+00  0.000000D+00
     36 -0.642526D-02  0.000000D+00  0.000000D+00 -0.185554D-02  0.163500D-05
               11            12            13            14            15 
     11  0.778560D+00
     12 -0.838920D-01  0.634712D+00
     13  0.375387D-04  0.301183D-04  0.127709D+00
     14 -0.450427D+00  0.173279D-01 -0.621023D-04  0.815657D+00
     15 -0.142013D-01 -0.129695D+00 -0.815006D-04  0.550676D-01  0.683378D+00
     16 -0.182853D-04 -0.993558D-05 -0.442916D-01  0.229200D-04  0.161278D-04
     17 -0.401812D-01  0.403045D-01 -0.424526D-05 -0.176543D+00  0.930059D-01
     18  0.501151D-01  0.633505D-02  0.352005D-04  0.608461D-01 -0.270446D+00
     19  0.000000D+00  0.000000D+00  0.355043D-02 -0.371066D-05  0.000000D+00
     20  0.629660D-03  0.277172D-03  0.000000D+00 -0.270215D-02 -0.191885D-02
     21  0.422596D-03  0.935391D-03 -0.205400D-05 -0.634488D-02 -0.121754D-02
     22  0.164605D-05 -0.446472D-05 -0.155461D-03  0.425392D-05 -0.130222D-05
     23 -0.206115D-02  0.317306D-02  0.000000D+00 -0.664514D-03  0.950208D-03
     24  0.391923D-02 -0.394229D-02  0.000000D+00  0.159931D-02 -0.620088D-03
     25 -0.313569D-04  0.583992D-04 -0.146706D-02  0.445784D-05 -0.119575D-05
     26 -0.120662D+00  0.119653D+00 -0.662551D-05 -0.985088D-02  0.292760D-01
     27  0.122767D+00 -0.280827D+00 -0.270910D-05 -0.309068D-02  0.318293D-02
     28  0.338861D-05  0.618040D-05 -0.360829D-01  0.216851D-04  0.431256D-04
     29 -0.116808D-01 -0.281936D-01  0.231762D-04 -0.155063D+00 -0.138507D+00
     30  0.161703D-02  0.621230D-02  0.451536D-04 -0.129590D+00 -0.246193D+00
     31 -0.409994D-04 -0.106448D-04  0.423683D-02  0.956977D-05 -0.144514D-05
     32 -0.649502D-01 -0.303086D-01  0.000000D+00  0.109522D-01 -0.808833D-02
     33 -0.482256D-01  0.112373D-01  0.502678D-05  0.449988D-02 -0.146279D-01
     34 -0.281904D-05  0.101156D-05 -0.646408D-02 -0.660885D-05  0.000000D+00
     35  0.263819D-02  0.353941D-02  0.191672D-05 -0.121264D-01 -0.178362D-02
     36  0.136554D-02 -0.642526D-02 -0.105632D-04  0.342639D-01  0.655588D-02
               16            17            18            19            20 
     16  0.618619D-01
     17 -0.129191D-03  0.877485D+00
     18  0.000000D+00  0.000000D+00  0.684893D+00
     19  0.460435D-03  0.701584D-05 -0.315897D-05  0.238418D-01
     20 -0.216667D-05  0.132618D-01 -0.209518D-01 -0.311275D-04  0.157672D+00
     21 -0.483505D-05  0.178885D-01 -0.271712D-01  0.488526D-04 -0.139831D+00
     22  0.907423D-02 -0.126523D-05  0.255987D-05 -0.542043D-02  0.000000D+00
     23  0.191718D-05 -0.587919D-02  0.136624D-02 -0.109621D-05  0.974407D-03
     24 -0.485723D-05  0.156025D-02  0.332743D-02  0.308168D-05 -0.615611D-03
     25  0.907423D-02 -0.126523D-05 -0.255988D-05 -0.745855D-03  0.000000D+00
     26  0.191718D-05 -0.587919D-02 -0.136624D-02  0.000000D+00  0.996300D-04
     27  0.485723D-05 -0.156025D-02  0.332743D-02  0.000000D+00  0.115240D-03
     28  0.460435D-03  0.701584D-05  0.315897D-05  0.117862D-02  0.000000D+00
     29 -0.216667D-05  0.132618D-01  0.209518D-01  0.000000D+00  0.571312D-03
     30  0.483505D-05 -0.178885D-01 -0.271712D-01  0.000000D+00 -0.778493D-03
     31  0.444848D-04 -0.396928D-05  0.000000D+00 -0.236095D-02 -0.265469D-05
     32 -0.988890D-05 -0.914611D-02  0.000000D+00  0.754460D-05 -0.235828D-02
     33  0.000000D+00  0.000000D+00  0.132963D-01 -0.269146D-05  0.221666D-02
     34 -0.185355D-02  0.145345D-03  0.000000D+00 -0.180133D-02 -0.106290D-05
     35  0.121703D-03 -0.460617D+00  0.000000D+00 -0.116485D-05  0.126120D-02
     36  0.000000D+00  0.000000D+00 -0.705798D-01  0.000000D+00  0.545728D-03
               21            22            23            24            25 
     21  0.266608D+00
     22  0.000000D+00  0.234858D-01
     23  0.202254D-03  0.284409D-04  0.124380D+00
     24  0.747667D-03  0.752661D-04  0.131391D+00  0.292759D+00
     25  0.000000D+00 -0.106795D-02 -0.100847D-05  0.132287D-05  0.234858D-01
     26  0.108702D-03 -0.100847D-05  0.619259D-03 -0.918667D-03  0.284409D-04
     27  0.316134D-04 -0.132287D-05  0.918667D-03 -0.114828D-02 -0.752661D-04
     28  0.000000D+00 -0.745855D-03  0.000000D+00  0.000000D+00 -0.542043D-02
     29  0.778493D-03  0.000000D+00  0.996300D-04 -0.115240D-03  0.000000D+00
     30 -0.117167D-02  0.000000D+00 -0.108702D-03  0.316134D-04  0.000000D+00
     31  0.000000D+00 -0.271093D-02  0.000000D+00  0.360220D-05 -0.271093D-02
     32  0.313553D-03  0.444687D-05  0.101716D-02  0.109344D-02  0.444687D-05
     33  0.202872D-03  0.164880D-05 -0.289325D-02  0.432365D-02 -0.164880D-05
     34  0.000000D+00  0.194328D-02  0.000000D+00 -0.109691D-05  0.194328D-02
     35  0.242013D-03  0.000000D+00 -0.456392D-03  0.405175D-03  0.000000D+00
     36  0.468670D-03  0.000000D+00 -0.148858D-02  0.289341D-03  0.000000D+00
               26            27            28            29            30 
     26  0.124380D+00
     27 -0.131391D+00  0.292759D+00
     28 -0.109621D-05 -0.308168D-05  0.238418D-01
     29  0.974407D-03  0.615611D-03 -0.311275D-04  0.157672D+00
     30 -0.202254D-03  0.747667D-03 -0.488526D-04  0.139831D+00  0.266608D+00
     31  0.000000D+00 -0.360220D-05 -0.236095D-02 -0.265469D-05  0.000000D+00
     32  0.101716D-02 -0.109344D-02  0.754460D-05 -0.235828D-02 -0.313553D-03
     33  0.289325D-02  0.432365D-02  0.269146D-05 -0.221666D-02  0.202872D-03
     34  0.000000D+00  0.109691D-05 -0.180133D-02 -0.106290D-05  0.000000D+00
     35 -0.456393D-03 -0.405175D-03 -0.116484D-05  0.126120D-02 -0.242013D-03
     36  0.148858D-02  0.289341D-03  0.000000D+00 -0.545728D-03  0.468670D-03
               31            32            33            34            35 
     31  0.262891D-01
     32  0.585057D-03  0.739802D+00
     33  0.000000D+00  0.000000D+00  0.814800D-01
     34 -0.353274D-03  0.000000D+00  0.000000D+00  0.934635D-02
     35  0.000000D+00  0.129128D-02  0.000000D+00 -0.124778D-03  0.477325D+00
     36  0.000000D+00  0.000000D+00  0.713389D-03  0.000000D+00  0.000000D+00
               36 
     36  0.699446D-01
 FormGI is forming the generalized inverse of G from B-inverse, IUseBI=4.
 Leave Link  716 at Sun Sep  5 14:51:19 2021, MaxMem=  1342177280 cpu:         0.3
 (Enter /gpfs/share/home/1801110325/software/g09e01/l103.exe)

 GradGradGradGradGradGradGradGradGradGradGradGradGradGradGradGradGradGrad
 Berny optimization.
 Red2BG is reusing G-inverse.
 Internal  Forces:  Max     0.005768530 RMS     0.000995360
 Search for a local minimum.
 Step number   1 out of a maximum of   64
 All quantities printed in internal units (Hartrees-Bohrs-Radians)
 RMS Force = .99536D-03 SwitMx=.10000D-02 MixMth= 2
 Mixed Optimization -- En-DIIS/RFO-DIIS
 Second derivative matrix not updated -- analytic derivatives used.
 ITU=  0
     Eigenvalues ---    0.00546   0.00738   0.01617   0.01748   0.01859
     Eigenvalues ---    0.02003   0.02808   0.02980   0.04457   0.09691
     Eigenvalues ---    0.10306   0.11678   0.12504   0.12727   0.17264
     Eigenvalues ---    0.19835   0.21155   0.21181   0.28513   0.29114
     Eigenvalues ---    0.36195   0.36337   0.36521   0.36703   0.41896
     Eigenvalues ---    0.42872   0.47862   0.48178   0.56607   0.76342
 RFO step:  Lambda=-9.57430080D-05 EMin= 5.46420798D-03
 Linear search not attempted -- first point.
 Iteration  1 RMS(Cart)=  0.00241830 RMS(Int)=  0.00000289
 Iteration  2 RMS(Cart)=  0.00000304 RMS(Int)=  0.00000047
 Iteration  3 RMS(Cart)=  0.00000000 RMS(Int)=  0.00000047
 ITry= 1 IFail=0 DXMaxC= 1.17D-02 DCOld= 1.00D+10 DXMaxT= 3.00D-01 DXLimC= 3.00D+00 Rises=F
 ClnCor:  largest displacement from symmetrization is 2.39D-10 for atom    10.
 Variable       Old X    -DE/DX   Delta X   Delta X   Delta X     New X
                                 (Linear)    (Quad)   (Total)
    R1        2.55123   0.00244   0.00000   0.00457   0.00457   2.55580
    R2        2.58643   0.00058   0.00000   0.00124   0.00124   2.58767
    R3        2.04186   0.00082   0.00000   0.00204   0.00204   2.04390
    R4        2.76427   0.00014   0.00000  -0.00184  -0.00184   2.76243
    R5        2.04063   0.00087   0.00000   0.00246   0.00246   2.04309
    R6        2.76427   0.00014   0.00000  -0.00184  -0.00184   2.76243
    R7        2.32217   0.00577   0.00000   0.00795   0.00795   2.33012
    R8        2.55123   0.00244   0.00000   0.00457   0.00457   2.55580
    R9        2.04063   0.00087   0.00000   0.00246   0.00246   2.04309
   R10        2.58643   0.00058   0.00000   0.00124   0.00124   2.58767
   R11        2.04186   0.00082   0.00000   0.00204   0.00204   2.04390
   R12        1.89717   0.00153   0.00000   0.00327   0.00327   1.90044
    A1        2.11603  -0.00020   0.00000  -0.00143  -0.00143   2.11460
    A2        2.14883   0.00056   0.00000   0.00375   0.00375   2.15258
    A3        2.01832  -0.00036   0.00000  -0.00232  -0.00232   2.01600
    A4        2.12294   0.00051   0.00000   0.00198   0.00198   2.12492
    A5        2.09830  -0.00052   0.00000  -0.00423  -0.00423   2.09407
    A6        2.06195   0.00001   0.00000   0.00225   0.00225   2.06420
    A7        1.98413  -0.00047   0.00000  -0.00113  -0.00113   1.98300
    A8        2.14953   0.00023   0.00000   0.00056   0.00056   2.15009
    A9        2.14953   0.00023   0.00000   0.00056   0.00056   2.15009
   A10        2.12294   0.00051   0.00000   0.00198   0.00198   2.12492
   A11        2.06195   0.00001   0.00000   0.00225   0.00225   2.06420
   A12        2.09830  -0.00052   0.00000  -0.00423  -0.00423   2.09407
   A13        2.11603  -0.00020   0.00000  -0.00143  -0.00143   2.11460
   A14        2.14883   0.00056   0.00000   0.00375   0.00375   2.15258
   A15        2.01832  -0.00036   0.00000  -0.00232  -0.00232   2.01600
   A16        2.10430  -0.00015   0.00000   0.00003   0.00003   2.10433
   A17        2.08944   0.00008   0.00000  -0.00002  -0.00002   2.08943
   A18        2.08944   0.00008   0.00000  -0.00002  -0.00002   2.08943
    D1        0.00034  -0.00002   0.00000  -0.00033  -0.00033   0.00001
    D2       -3.14145  -0.00001   0.00000  -0.00015  -0.00015   3.14159
    D3       -3.14130  -0.00002   0.00000  -0.00028  -0.00028  -3.14159
    D4        0.00010  -0.00001   0.00000  -0.00010  -0.00010  -0.00000
    D5        0.00026  -0.00001   0.00000  -0.00026  -0.00026   0.00000
    D6        3.14129   0.00000   0.00000   0.00030   0.00030   3.14159
    D7       -3.14129  -0.00001   0.00000  -0.00030  -0.00030   3.14159
    D8       -0.00026   0.00000   0.00000   0.00026   0.00026  -0.00001
    D9       -0.00085   0.00004   0.00000   0.00084   0.00084  -0.00001
   D10       -3.14035  -0.00005   0.00000  -0.00124  -0.00124  -3.14159
   D11        3.14093   0.00003   0.00000   0.00066   0.00066   3.14159
   D12        0.00143  -0.00006   0.00000  -0.00142  -0.00142   0.00001
   D13        0.00085  -0.00004   0.00000  -0.00084  -0.00084   0.00001
   D14       -3.14093  -0.00003   0.00000  -0.00066  -0.00066  -3.14159
   D15        3.14035   0.00005   0.00000   0.00124   0.00124   3.14159
   D16       -0.00143   0.00006   0.00000   0.00142   0.00142  -0.00001
   D17       -0.00034   0.00002   0.00000   0.00033   0.00033  -0.00001
   D18        3.14130   0.00002   0.00000   0.00028   0.00028   3.14159
   D19        3.14145   0.00001   0.00000   0.00015   0.00015  -3.14159
   D20       -0.00010   0.00001   0.00000   0.00010   0.00010   0.00000
   D21       -0.00026   0.00001   0.00000   0.00026   0.00026  -0.00000
[...]
 Angle between quadratic step and forces=  22.02 degrees.
 Linear search not attempted -- first point.
 Iteration  1 RMS(Cart)=  0.00001896 RMS(Int)=  0.00000000
 Iteration  2 RMS(Cart)=  0.00000000 RMS(Int)=  0.00000001
 ITry= 1 IFail=0 DXMaxC= 1.11D-04 DCOld= 1.00D+10 DXMaxT= 3.00D-01 DXLimC= 3.00D+00 Rises=F
 ClnCor:  largest displacement from symmetrization is 2.46D-09 for atom    10.
 Variable       Old X    -DE/DX   Delta X   Delta X   Delta X     New X
                                 (Linear)    (Quad)   (Total)
    R1        2.55580   0.00002   0.00000   0.00004   0.00004   2.55584
    R2        2.58767   0.00000   0.00000   0.00000   0.00000   2.58767
    R3        2.04390   0.00000   0.00000   0.00001   0.00001   2.04391
    R4        2.76243   0.00000   0.00000  -0.00001  -0.00001   2.76241
    R5        2.04309   0.00000   0.00000   0.00001   0.00001   2.04310
    R6        2.76243   0.00000   0.00000  -0.00001  -0.00001   2.76241
    R7        2.33012   0.00008   0.00000   0.00012   0.00012   2.33024
    R8        2.55580   0.00002   0.00000   0.00004   0.00004   2.55584
    R9        2.04309   0.00000   0.00000   0.00001   0.00001   2.04310
   R10        2.58767   0.00000   0.00000   0.00000   0.00000   2.58767
   R11        2.04390   0.00000   0.00000   0.00001   0.00001   2.04391
   R12        1.90044   0.00001   0.00000   0.00002   0.00002   1.90046
    A1        2.11460  -0.00000   0.00000  -0.00001  -0.00001   2.11459
    A2        2.15258   0.00000   0.00000   0.00001   0.00001   2.15259
    A3        2.01600  -0.00000   0.00000  -0.00000  -0.00000   2.01600
    A4        2.12492   0.00000   0.00000  -0.00000  -0.00000   2.12491
    A5        2.09407  -0.00000   0.00000  -0.00000  -0.00000   2.09407
    A6        2.06420  -0.00000   0.00000   0.00001   0.00001   2.06421
    A7        1.98300  -0.00000   0.00000   0.00001   0.00001   1.98301
    A8        2.15009   0.00000   0.00000  -0.00001  -0.00001   2.15009
    A9        2.15009   0.00000   0.00000  -0.00001  -0.00001   2.15009
   A10        2.12492   0.00000   0.00000  -0.00000  -0.00000   2.12491
   A11        2.06420  -0.00000   0.00000   0.00001   0.00001   2.06421
   A12        2.09407  -0.00000   0.00000  -0.00000  -0.00000   2.09407
   A13        2.11460  -0.00000   0.00000  -0.00001  -0.00001   2.11459
   A14        2.15258   0.00000   0.00000   0.00001   0.00001   2.15259
   A15        2.01600  -0.00000   0.00000  -0.00000  -0.00000   2.01600
   A16        2.10433   0.00000   0.00000   0.00001   0.00001   2.10434
   A17        2.08943  -0.00000   0.00000  -0.00000  -0.00000   2.08942
   A18        2.08943  -0.00000   0.00000  -0.00000  -0.00000   2.08942
    D1        0.00001  -0.00000   0.00000  -0.00001  -0.00001  -0.00000
    D2        3.14159  -0.00000   0.00000   0.00000   0.00000   3.14159
    D3       -3.14159  -0.00000   0.00000  -0.00001  -0.00001   3.14159
    D4       -0.00000  -0.00000   0.00000   0.00000   0.00000   0.00000
    D5        0.00000  -0.00000   0.00000  -0.00000  -0.00000   0.00000
    D6        3.14159   0.00000   0.00000   0.00000   0.00000   3.14159
    D7        3.14159  -0.00000   0.00000   0.00000   0.00000  -3.14159
    D8       -0.00001   0.00000   0.00000   0.00001   0.00001  -0.00000
    D9       -0.00001   0.00000   0.00000   0.00001   0.00001   0.00000
   D10       -3.14159  -0.00000   0.00000  -0.00000  -0.00000  -3.14159
   D11        3.14159   0.00000   0.00000   0.00000   0.00000   3.14159
   D12        0.00001  -0.00000   0.00000  -0.00001  -0.00001   0.00000
   D13        0.00001  -0.00000   0.00000  -0.00001  -0.00001  -0.00000
   D14       -3.14159  -0.00000   0.00000  -0.00000  -0.00000   3.14159
   D15        3.14159   0.00000   0.00000   0.00000   0.00000   3.14159
   D16       -0.00001   0.00000   0.00000   0.00001   0.00001   0.00000
   D17       -0.00001   0.00000   0.00000   0.00001   0.00001   0.00000
   D18        3.14159   0.00000   0.00000   0.00001   0.00001   3.14159
   D19       -3.14159   0.00000   0.00000  -0.00000  -0.00000   3.14159
   D20        0.00000   0.00000   0.00000  -0.00000  -0.00000   0.00000
   D21       -0.00000   0.00000   0.00000   0.00000   0.00000   0.00000
   D22       -3.14159  -0.00000   0.00000  -0.00000  -0.00000  -3.14159
   D23       -3.14159   0.00000   0.00000  -0.00000  -0.00000   3.14159
   D24        0.00001  -0.00000   0.00000  -0.00001  -0.00001   0.00000
         Item               Value     Threshold  Converged?
 Maximum Force            0.000083     0.000450     YES
 RMS     Force            0.000012     0.000300     YES
 Maximum Displacement     0.000111     0.001800     YES
 RMS     Displacement     0.000019     0.001200     YES
 Predicted change in Energy=-5.791100D-09
 Optimization completed.
    -- Stationary point found.
                           ----------------------------
                           !   Optimized Parameters   !
                           ! (Angstroms and Degrees)  !
 --------------------------                            --------------------------
 ! Name  Definition              Value          Derivative Info.                !
 --------------------------------------------------------------------------------
 ! R1    R(1,2)                  1.3525         -DE/DX =    0.0                 !
 ! R2    R(1,6)                  1.3693         -DE/DX =    0.0                 !
 ! R3    R(1,7)                  1.0816         -DE/DX =    0.0                 !
 ! R4    R(2,3)                  1.4618         -DE/DX =    0.0                 !
 ! R5    R(2,8)                  1.0812         -DE/DX =    0.0                 !
 ! R6    R(3,4)                  1.4618         -DE/DX =    0.0                 !
 ! R7    R(3,11)                 1.233          -DE/DX =    0.0001              !
 ! R8    R(4,5)                  1.3525         -DE/DX =    0.0                 !
 ! R9    R(4,9)                  1.0812         -DE/DX =    0.0                 !
 ! R10   R(5,6)                  1.3693         -DE/DX =    0.0                 !
 ! R11   R(5,10)                 1.0816         -DE/DX =    0.0                 !
 ! R12   R(6,12)                 1.0057         -DE/DX =    0.0                 !
 ! A1    A(2,1,6)              121.1578         -DE/DX =    0.0                 !
 ! A2    A(2,1,7)              123.3339         -DE/DX =    0.0                 !
 ! A3    A(6,1,7)              115.5083         -DE/DX =    0.0                 !
 ! A4    A(1,2,3)              121.7487         -DE/DX =    0.0                 !
 ! A5    A(1,2,8)              119.9814         -DE/DX =    0.0                 !
 ! A6    A(3,2,8)              118.27           -DE/DX =    0.0                 !
 ! A7    A(2,3,4)              113.6176         -DE/DX =    0.0                 !
 ! A8    A(2,3,11)             123.1912         -DE/DX =    0.0                 !
 ! A9    A(4,3,11)             123.1912         -DE/DX =    0.0                 !
 ! A10   A(3,4,5)              121.7487         -DE/DX =    0.0                 !
 ! A11   A(3,4,9)              118.27           -DE/DX =    0.0                 !
 ! A12   A(5,4,9)              119.9814         -DE/DX =    0.0                 !
 ! A13   A(4,5,6)              121.1578         -DE/DX =    0.0                 !
 ! A14   A(4,5,10)             123.3339         -DE/DX =    0.0                 !
 ! A15   A(6,5,10)             115.5083         -DE/DX =    0.0                 !
 ! A16   A(1,6,5)              120.5695         -DE/DX =    0.0                 !
 ! A17   A(1,6,12)             119.7152         -DE/DX =    0.0                 !
 ! A18   A(5,6,12)             119.7152         -DE/DX =    0.0                 !
 ! D1    D(6,1,2,3)              0.0003         -DE/DX =    0.0                 !
 ! D2    D(6,1,2,8)            179.9999         -DE/DX =    0.0                 !
 ! D3    D(7,1,2,3)            180.0004         -DE/DX =    0.0                 !
 ! D4    D(7,1,2,8)              0.0            -DE/DX =    0.0                 !
 ! D5    D(2,1,6,5)              0.0            -DE/DX =    0.0                 !
 ! D6    D(2,1,6,12)           179.9997         -DE/DX =    0.0                 !
 ! D7    D(7,1,6,5)           -180.0            -DE/DX =    0.0                 !
 ! D8    D(7,1,6,12)            -0.0003         -DE/DX =    0.0                 !
 ! D9    D(1,2,3,4)             -0.0006         -DE/DX =    0.0                 !
 ! D10   D(1,2,3,11)          -179.9998         -DE/DX =    0.0                 !
 ! D11   D(8,2,3,4)            179.9998         -DE/DX =    0.0                 !
 ! D12   D(8,2,3,11)             0.0006         -DE/DX =    0.0                 !
 ! D13   D(2,3,4,5)              0.0006         -DE/DX =    0.0                 !
 ! D14   D(2,3,4,9)            180.0002         -DE/DX =    0.0                 !
 ! D15   D(11,3,4,5)           179.9998         -DE/DX =    0.0                 !
 ! D16   D(11,3,4,9)            -0.0006         -DE/DX =    0.0                 !
 ! D17   D(3,4,5,6)             -0.0003         -DE/DX =    0.0                 !
 ! D18   D(3,4,5,10)           179.9996         -DE/DX =    0.0                 !
 ! D19   D(9,4,5,6)            180.0001         -DE/DX =    0.0                 !
 ! D20   D(9,4,5,10)             0.0            -DE/DX =    0.0                 !
 ! D21   D(4,5,6,1)              0.0            -DE/DX =    0.0                 !
 ! D22   D(4,5,6,12)          -179.9997         -DE/DX =    0.0                 !
 ! D23   D(10,5,6,1)           180.0            -DE/DX =    0.0                 !
 ! D24   D(10,5,6,12)            0.0003         -DE/DX =    0.0                 !
 --------------------------------------------------------------------------------
 GradGradGradGradGradGradGradGradGradGradGradGradGradGradGradGradGradGrad

 Leave Link  103 at Sun Sep  5 14:55:57 2021, MaxMem=  1342177280 cpu:         0.5
 (Enter /gpfs/share/home/1801110325/software/g09e01/l9999.exe)
 1\1\GINC-A7U03N04\Freq\RTPSSh\Gen\C5H5N1O1\1801110325\05-Sep-2021\0\\#
 P Geom=AllCheck Guess=TCheck SCRF=Check GenChk RTPSSh/ChkBas Freq\\4PY
 _TPSSh_PC2_OPT_FREQ\\0,1\C,-0.0001613935,-1.046242916,1.1892671385\C,-
 0.0001223057,0.3058005793,1.2233152723\C,-0.0001064593,1.106048045,0.\
 C,-0.0001223057,0.3058005793,-1.2233152723\C,-0.0001613935,-1.04624291
 6,-1.1892671385\N,-0.0001812208,-1.725008383,0.\H,-0.0001795545,-1.663
 1525595,2.0776640008\H,-0.0001081962,0.8223272377,2.1731044173\H,-0.00
 01081962,0.8223272377,-2.1731044173\H,-0.0001795545,-1.6631525595,-2.0
 776640008\O,-0.0000670903,2.3390948902,0.\H,-0.0002063297,-2.730679235
 2,0.\\Version=EM64L-G09RevE.01\State=1-A'\HF=-323.648418\RMSD=1.205e-0
 9\RMSF=1.949e-05\ZeroPoint=0.0929377\Thermal=0.0983965\Dipole=-0.00007
 78,-2.7416124,0.\DipoleDeriv=-0.0685071,0.0000226,0.0000063,0.0000207,
 0.666485,0.2330238,0.0000108,0.3713358,0.4020926,-0.1829812,-0.0000076
 ,-0.0000002,-0.0000087,-0.5181601,0.0609919,0.0000129,0.4708186,-0.116
 573,0.2118588,0.0000415,0.,0.000039,1.7689865,0.,0.,0.,0.5165215,-0.18
 29812,-0.0000076,0.0000002,-0.0000087,-0.5181601,-0.0609919,-0.0000129
 ,-0.4708186,-0.1165729,-0.0685071,0.0000226,-0.0000063,0.0000207,0.666
 485,-0.2330237,-0.0000108,-0.3713358,0.4020926,-0.1715988,-0.0000248,0
 .,-0.0000198,-0.8507216,0.,0.,0.,-0.6677361,0.1464433,-0.0000042,0.000
 0024,-0.000004,0.0062907,0.0740652,0.0000015,0.0636254,-0.0137637,0.14
 08789,-0.000002,-0.0000005,-0.0000025,0.0484867,-0.0399004,-0.000001,-
 0.0282475,-0.0345768,0.1408789,-0.000002,0.0000005,-0.0000025,0.048486
 7,0.0399004,0.000001,0.0282475,-0.0345768,0.1464433,-0.0000042,-0.0000
 024,-0.000004,0.0062907,-0.0740652,-0.0000015,-0.0636254,-0.0137637,-0
 .4069909,-0.000036,0.,-0.0000293,-1.5839013,0.,0.,0.,-0.4527194,0.2950
 63,0.0000016,0.,-0.0000008,0.2594319,0.,0.,0.,0.1295757\Polar=37.98469
 96,0.0015097,92.1082284,0.,0.0000002,70.8150879\PG=CS [SG(C1H1N1O1),X(
 C4H4)]\NImag=0\\0.12848966,0.00001927,0.80790283,-0.00000157,-0.055645
 09,0.68044289,-0.05087188,-0.00001104,0.00000030,0.10509820,-0.0000111
 5,-0.44319708,0.01489569,0.00001836,0.76992500,-0.00000056,-0.01668984
 ,-0.12997412,0.00000292,0.08088482,0.63466195,-0.00109221,-0.00000106,
 0.00000079,-0.07135701,-0.00000057,0.00000039,0.19034538,-0.00000067,-
 0.03074576,0.02650029,-0.00000079,-0.11026386,0.03739325,0.00001955,0.
 85386971,0.00000117,0.03938221,0.04136405,-0.00000008,0.02294921,-0.20
 763081,0.,0.,0.52000956,-0.00112711,-0.00000025,-0.00000056,0.00753094
 ,0.00000059,0.00000009,-0.07135701,-0.00000079,0.00000008,0.10509820,-
 0.00000032,-0.01122494,-0.02058368,0.00000059,0.02914324,0.00841740,-0
 .00000057,-0.11026386,-0.02294921,0.00001836,0.76992500,0.00000007,0.0
 0297339,-0.00235191,-0.00000009,-0.00841740,-0.02972840,-0.00000039,-0
 .03739325,-0.20763081,-0.00000292,-0.08088482,0.63466195,0.00543341,0.
 00000051,0.00000021,-0.00112711,-0.00000032,-0.00000007,-0.00109221,-0
 .00000067,-0.00000117,-0.05087188,-0.00001115,0.00000056,0.12848966,0.
 00000051,0.02278847,0.00792902,-0.00000025,-0.01122494,-0.00297339,-0.
 00000106,-0.03074576,-0.03938221,-0.00001104,-0.44319708,0.01668984,0.
 00001927,0.80790283,-0.00000021,-0.00792902,-0.06948468,0.00000056,0.0
 2058368,-0.00235191,-0.00000079,-0.02650029,0.04136405,-0.00000030,-0.
 01489569,-0.12997412,0.00000157,0.05564509,0.68044289,-0.04444383,-0.0
 0000351,-0.00000264,0.00942184,-0.00000156,-0.00000112,-0.00939956,0.0
 0000058,0.,0.00942184,-0.00000156,0.00000112,-0.04444383,-0.00000351,0
 .00000264,0.06308624,-0.00000373,-0.17598637,-0.09230189,-0.00000151,-
 0.04008268,-0.04008546,0.00000066,0.01095374,0.,-0.00000151,-0.0400826
 8,0.04008547,-0.00000373,-0.17598637,0.09230190,0.00002133,0.87108552,
 -0.00000183,-0.05993889,-0.26903916,-0.00000146,-0.05016003,0.00640475
 ,0.,0.,-0.05166783,0.00000146,0.05016003,0.00640475,0.00000183,0.05993
 889,-0.26903916,0.,0.,0.68270322,-0.03616742,-0.00000351,0.00000405,0.
 00686079,-0.00000050,0.00000079,0.01130712,-0.00000039,-0.00000017,-0.
 00106278,0.00000005,0.,0.00356028,-0.00000019,-0.00000005,0.00046462,0
 .00000040,-0.00000064,0.02410257,-0.00000351,-0.15511950,0.13780741,-0
 .00000044,-0.01142748,0.02792058,-0.00000044,-0.00266548,-0.00571018,0
 .00000005,0.00062394,0.00026556,-0.00000018,-0.00268296,-0.00191586,0.
 00000037,0.01321418,-0.02090793,0.00000387,0.15748863,0.00000372,0.128
 69065,-0.24431803,-0.00000003,-0.00166146,0.00624129,-0.00000004,-0.00
 174632,0.00052416,0.00000001,0.00041837,0.00092981,-0.00000018,-0.0063
 4472,-0.00122289,0.00000050,0.01791032,-0.02725330,-0.00000402,-0.1389
 0643,0.26483320,-0.00145461,-0.00000027,-0.00000087,-0.03155899,-0.000
 00234,-0.00000314,0.00461307,0.00000017,0.00000033,0.00362795,-0.00000
 015,0.00000003,-0.00015135,0.00000004,0.,0.00904271,-0.00000044,0.0000
 0011,-0.00537324,0.00000019,0.,0.02383880,-0.00000023,-0.00988905,-0.0
 2929855,-0.00000239,-0.11961441,-0.11792479,0.00000022,0.01247754,0.01
 536317,-0.00000015,-0.00205529,0.00317732,-0.00000001,-0.00066306,0.00
 095941,-0.00000040,-0.00590777,0.00135087,0.00000016,0.00096215,0.0002
 1524,0.00000270,0.12342080,0.00000010,0.00297660,0.00309807,-0.0000034
 4,-0.12102988,-0.27936154,-0.00000049,-0.01856447,-0.01801218,0.000000
 07,0.00391831,-0.00395043,0.00000005,0.00159376,-0.00061433,0.00000003
 ,0.00154587,0.00331838,0.,-0.00060009,0.00073936,0.00000365,0.12970821
 ,0.29132937,-0.00015135,0.00000004,0.,0.00362795,-0.00000015,-0.000000
 03,0.00461307,0.00000017,-0.00000033,-0.03155899,-0.00000234,0.0000031
 4,-0.00145461,-0.00000027,0.00000087,0.00904271,-0.00000044,-0.0000001
 1,-0.00074260,0.00000002,0.,-0.00106958,0.00000004,-0.00000001,0.02383
 880,-0.00000001,-0.00066306,-0.00095941,-0.00000015,-0.00205529,-0.003
 17732,0.00000022,0.01247754,-0.01536317,-0.00000239,-0.11961441,0.1179
 2479,-0.00000023,-0.00988905,0.02929855,-0.00000040,-0.00590777,-0.001
 35087,0.00000002,0.00010015,0.00010829,0.00000004,0.00061975,-0.000918
 54,0.00000270,0.12342080,-0.00000005,-0.00159376,-0.00061433,-0.000000
 07,-0.00391831,-0.00395043,0.00000049,0.01856447,-0.01801218,0.0000034
 4,0.12102988,-0.27936154,-0.00000010,-0.00297660,0.00309807,-0.0000000
 3,-0.00154587,0.00331838,0.,0.00011433,0.00003155,0.00000001,0.0009185
 4,-0.00114133,-0.00000365,-0.12970821,0.29132937,0.00356028,-0.0000001
 9,0.00000005,-0.00106278,0.00000005,0.,0.01130712,-0.00000039,0.000000
 17,0.00686079,-0.00000050,-0.00000079,-0.03616742,-0.00000351,-0.00000
 405,0.00046462,0.00000040,0.00000064,0.00117726,-0.00000002,0.00000002
 ,-0.00074260,0.00000002,0.,-0.00537324,0.00000016,0.,0.02410257,-0.000
 00018,-0.00268296,0.00191586,0.00000005,0.00062394,-0.00026556,-0.0000
 0044,-0.00266548,0.00571018,-0.00000044,-0.01142748,-0.02792058,-0.000
 00351,-0.15511950,-0.13780741,0.00000037,0.01321418,0.02090793,-0.0000
 0002,0.00056561,0.00077979,0.00000002,0.00010015,-0.00011433,0.0000001
 9,0.00096215,0.00060009,0.00000387,0.15748863,0.00000018,0.00634472,-0
 .00122289,-0.00000001,-0.00041837,0.00092981,0.00000004,0.00174632,0.0
 0052416,0.00000003,0.00166146,0.00624129,-0.00000372,-0.12869065,-0.24
 431803,-0.00000050,-0.01791032,-0.02725331,-0.00000002,-0.00077979,-0.
 00117475,0.,-0.00010829,0.00003155,0.,-0.00021524,0.00073936,0.0000040
 2,0.13890643,0.26483320,0.00427365,0.00000024,0.00000019,0.02032619,-0
 .00000239,0.00000086,-0.06718761,-0.00001676,0.,0.02032619,-0.00000239
 ,-0.00000086,0.00427365,0.00000024,-0.00000019,0.00000639,-0.00000027,
 0.,-0.00233000,0.,0.,-0.00270581,0.00000010,0.00000005,-0.00270581,0.0
 0000010,-0.00000005,-0.00233000,0.,0.,0.02841704,0.00000017,0.01093671
 ,0.00793793,-0.00000245,-0.06446692,0.03005630,-0.00001653,-0.60179966
 ,0.,-0.00000245,-0.06446692,-0.03005630,0.00000017,0.01093671,-0.00793
 793,-0.00000031,-0.00913687,0.,0.00000002,-0.00232079,0.00029926,0.000
 00011,0.00101143,0.00107719,0.00000011,0.00101143,-0.00107719,0.000000
 02,-0.00232079,-0.00029926,0.00002108,0.71933024,-0.00000016,-0.004464
 93,-0.01447923,0.00000144,0.04764809,0.01116883,0.,0.,-0.09898242,-0.0
 0000144,-0.04764809,0.01116883,0.00000016,0.00446493,-0.01447923,0.,0.
 ,0.01322810,0.00000006,0.00218632,0.00020979,-0.00000009,-0.00286967,0
 .00427530,0.00000009,0.00286967,0.00427530,-0.00000006,-0.00218632,0.0
 0020979,0.,0.,0.08269166,-0.00644857,-0.00000024,0.00000004,0.00311186
 ,-0.00000002,-0.00000013,-0.00070014,-0.00000002,0.,0.00311185,-0.0000
 0002,0.00000013,-0.00644858,-0.00000024,-0.00000004,-0.00266376,-0.000
 01118,0.,-0.00179658,0.00000008,0.,0.00193367,-0.00000007,0.,0.0019336
 7,-0.00000007,0.,-0.00179658,0.00000008,0.,-0.00036387,0.00000007,0.,0
 .01012704,-0.00000014,-0.01211930,0.00180243,0.,0.00264049,-0.00355599
 ,0.,-0.00062866,0.,0.,0.00264049,0.00355599,-0.00000014,-0.01211930,-0
 .00180243,-0.00001142,-0.45537711,0.,0.00000007,0.00126156,0.00023701,
 -0.00000007,-0.00046222,0.00040736,-0.00000007,-0.00046222,-0.00040736
 ,0.00000007,0.00126156,-0.00023701,0.00000005,0.00128543,0.,0.00001164
 ,0.47207928,-0.00000086,-0.03410604,0.00657933,-0.00000004,-0.00135605
 ,-0.00640941,0.,0.,-0.00184974,0.00000004,0.00135605,-0.00640942,0.000
 00086,0.03410604,0.00657933,0.,0.,-0.07112482,0.00000002,0.00052607,0.
 00045981,-0.00000005,-0.00149146,0.00028778,0.00000005,0.00149146,0.00
 028778,-0.00000002,-0.00052607,0.00045981,0.,0.,0.00071328,0.,0.,0.070
 42628\\-0.00000002,0.00001483,-0.00000096,0.00000090,-0.00001342,0.000
 00192,-0.00000220,0.00007592,0.,0.00000090,-0.00001342,-0.00000192,-0.
 00000002,0.00001483,0.00000096,0.00000006,-0.00000709,0.,-0.00000016,0
 .00000300,-0.00000176,-0.00000007,-0.00000171,-0.00000332,-0.00000007,
 -0.00000171,0.00000332,-0.00000016,0.00000300,0.00000176,0.00000074,-0
 .00008316,0.,0.00000008,0.00000892,0.\\\@


 NECESSARY EVIL: ONE WE LIKE TOO MUCH TO RELINQUISH.
 Job cpu time:       0 days  0 hours 23 minutes 28.1 seconds.
 File lengths (MBytes):  RWF=   2160 Int=      0 D2E=      0 Chk=     32 Scr=     32
 Normal termination of Gaussian 09 at Sun Sep  5 14:55:58 2021.
