 Entering Gaussian System, Link 0=g09
 AtFile(1): pc-2.gbs
            -H     0
            S    4   1.00
                  0.754230D+02           0.240650D-02
                  0.113500D+02           0.184870D-01
                  0.259930D+01           0.897420D-01
                  0.735130D+00           0.281110D+00
            S    1   1.00
                  0.231670D+00           0.100000D+01
            S    1   1.00
                  0.741470D-01           0.100000D+01
            P    1   1.00
                  0.160000D+01           0.100000D+01
            P    1   1.00
                  0.450000D+00           0.100000D+01
            D    1   1.00
                  0.125000D+01           0.100000D+01
            ****
            -C     0
            S    7   1.00
                  0.785710D+04           0.568250D-03
                  0.117870D+04           0.439150D-02
                  0.268320D+03           0.225040D-01
                  0.759480D+02           0.866530D-01
                  0.245590D+02           0.244050D+00
                  0.862120D+01           0.441480D+00
                  0.312780D+01           0.353320D+00
            S    7   1.00
                  0.117870D+04          -0.594920D-06
                  0.268320D+03          -0.627480D-04
                  0.759480D+02          -0.757730D-03
                  0.245590D+02          -0.733080D-02
                  0.862120D+01          -0.389320D-01
                  0.312780D+01          -0.889080D-01
                  0.822020D+00           0.216890D+00
            S    1   1.00
                  0.330170D+00           0.100000D+01
            S    1   1.00
                  0.114630D+00           0.100000D+01
            P    4   1.00
                  0.337750D+02           0.602940D-02
                  0.767660D+01           0.432280D-01
                  0.223570D+01           0.163010D+00
                  0.764470D+00           0.365040D+00
            P    1   1.00
                  0.262320D+00           0.100000D+01
            P    1   1.00
                  0.846380D-01           0.100000D+01
            D    1   1.00
                  0.140000D+01           0.100000D+01
            D    1   1.00
                  0.450000D+00           0.100000D+01
            F    1   1.00
                  0.950000D+00           0.100000D+01
            ****
            -N     0
            S    7   1.00
                  0.111010D+05           0.545700D-03
                  0.166530D+04           0.421810D-02
                  0.379080D+03           0.216450D-01
                  0.107300D+03           0.837760D-01
                  0.347470D+02           0.238810D+00
                  0.122490D+02           0.439940D+00
                  0.447430D+01           0.363640D+00
            S    7   1.00
                  0.166530D+04          -0.150060D-05
                  0.379080D+03          -0.587530D-04
                  0.107300D+03          -0.774530D-03
                  0.347470D+02          -0.721610D-02
                  0.122490D+02          -0.393380D-01
                  0.447430D+01          -0.906110D-01
                  0.124040D+01           0.198820D+00
            S    1   1.00
                  0.487430D+00           0.100000D+01
            S    1   1.00
                  0.164840D+00           0.100000D+01
            P    4   1.00
                  0.479340D+02           0.617060D-02
                  0.109990D+02           0.442600D-01
                  0.324720D+01           0.168250D+00
                  0.111140D+01           0.368480D+00
            P    1   1.00
                  0.379880D+00           0.100000D+01
            P    1   1.00
                  0.120680D+00           0.100000D+01
            D    1   1.00
                  0.180000D+01           0.100000D+01
            D    1   1.00
                  0.550000D+00           0.100000D+01
            F    1   1.00
                  0.102000D+01           0.100000D+01
            ****
            -O     0
            S    7   1.00
                  0.147820D+05           0.535190D-03
                  0.221730D+04           0.413750D-02
                  0.504740D+03           0.212450D-01
                  0.142870D+03           0.824530D-01
                  0.463000D+02           0.236710D+00
                  0.163370D+02           0.440390D+00
                  0.598280D+01           0.364650D+00
            S    7   1.00
                  0.221730D+04          -0.192750D-05
                  0.504740D+03          -0.579640D-04
                  0.142870D+03          -0.794940D-03
                  0.463000D+02          -0.731250D-02
                  0.163370D+02          -0.405740D-01
                  0.598280D+01          -0.915940D-01
                  0.167180D+01           0.209400D+00
            S    1   1.00
                  0.646620D+00           0.100000D+01
            S    1   1.00
                  0.216690D+00           0.100000D+01
            P    4   1.00
                  0.604240D+02           0.689490D-02
                  0.139350D+02           0.490050D-01
                  0.415310D+01           0.182550D+00
                  0.141580D+01           0.376330D+00
            P    1   1.00
                  0.475490D+00           0.100000D+01
            P    1   1.00
                  0.145290D+00           0.100000D+01
            D    1   1.00
                  0.220000D+01           0.100000D+01
            D    1   1.00
                  0.650000D+00           0.100000D+01
            F    1   1.00
                  0.110000D+01           0.100000D+01
            ****
 Initial command:
 /public3/home/sc51754/softwares/g09e01/l1.exe "./Gau-40296.inp" -scrdir="./"
 Entering Link 1 = /public3/home/sc51754/softwares/g09e01/l1.exe PID=     40297.
  
 Copyright (c) 1988,1990,1992,1993,1995,1998,2003,2009,2015,
            Gaussian, Inc.  All Rights Reserved.
  
 This is part of the Gaussian(R) 09 program.  It is based on
 the Gaussian(R) 03 system (copyright 2003, Gaussian, Inc.),
 the Gaussian(R) 98 system (copyright 1998, Gaussian, Inc.),
 the Gaussian(R) 94 system (copyright 1995, Gaussian, Inc.),
 the Gaussian 92(TM) system (copyright 1992, Gaussian, Inc.),
 the Gaussian 90(TM) system (copyright 1990, Gaussian, Inc.),
 the Gaussian 88(TM) system (copyright 1988, Gaussian, Inc.),
 the Gaussian 86(TM) system (copyright 1986, Carnegie Mellon
 University), and the Gaussian 82(TM) system (copyright 1983,
 Carnegie Mellon University). Gaussian is a federally registered
 trademark of Gaussian, Inc.
  
 This software contains proprietary and confidential information,
 including trade secrets, belonging to Gaussian, Inc.
  
 This software is provided under written license and may be
 used, copied, transmitted, or stored only in accord with that
 written license.
  
 The following legend is applicable only to US Government
 contracts under FAR:
  
                    RESTRICTED RIGHTS LEGEND
  
 Use, reproduction and disclosure by the US Government is
 subject to restrictions as set forth in subparagraphs (a)
 and (c) of the Commercial Computer Software - Restricted
 Rights clause in FAR 52.227-19.
  
 Gaussian, Inc.
 340 Quinnipiac St., Bldg. 40, Wallingford CT 06492
  
  
 ---------------------------------------------------------------
 Warning -- This program may not be used in any manner that
 competes with the business of Gaussian, Inc. or will provide
 assistance to any competitor of Gaussian, Inc.  The licensee
 of this program is prohibited from giving any competitor of
 Gaussian, Inc. access to this program.  By using this program,
 the user acknowledges that Gaussian, Inc. is engaged in the
 business of creating and licensing software in the field of
 computational chemistry and represents and warrants to the
 licensee that it is not a competitor of Gaussian, Inc. and that
 it will not use this program in any manner prohibited above.
 ---------------------------------------------------------------
  

 Cite this work as:
 Gaussian 09, Revision E.01,
 M. J. Frisch, G. W. Trucks, H. B. Schlegel, G. E. Scuseria, 
 M. A. Robb, J. R. Cheeseman, G. Scalmani, V. Barone, B. Mennucci, 
 G. A. Petersson, H. Nakatsuji, M. Caricato, X. Li, H. P. Hratchian, 
 A. F. Izmaylov, J. Bloino, G. Zheng, J. L. Sonnenberg, M. Hada, 
 M. Ehara, K. Toyota, R. Fukuda, J. Hasegawa, M. Ishida, T. Nakajima, 
 Y. Honda, O. Kitao, H. Nakai, T. Vreven, J. A. Montgomery, Jr., 
 J. E. Peralta, F. Ogliaro, M. Bearpark, J. J. Heyd, E. Brothers, 
 K. N. Kudin, V. N. Staroverov, T. Keith, R. Kobayashi, J. Normand, 
 K. Raghavachari, A. Rendell, J. C. Burant, S. S. Iyengar, J. Tomasi, 
 M. Cossi, N. Rega, J. M. Millam, M. Klene, J. E. Knox, J. B. Cross, 
 V. Bakken, C. Adamo, J. Jaramillo, R. Gomperts, R. E. Stratmann, 
 O. Yazyev, A. J. Austin, R. Cammi, C. Pomelli, J. W. Ochterski, 
 R. L. Martin, K. Morokuma, V. G. Zakrzewski, G. A. Voth, 
 P. Salvador, J. J. Dannenberg, S. Dapprich, A. D. Daniels, 
 O. Farkas, J. B. Foresman, J. V. Ortiz, J. Cioslowski, 
 and D. J. Fox, Gaussian, Inc., Wallingford CT, 2013.
 
 ******************************************
 Gaussian 09:  EM64L-G09RevE.01 30-Nov-2015
                27-Aug-2021 
 ******************************************
 %nprocshared=64
 Will use up to   64 processors via shared memory.
 %mem=128GB
 %chk=4PY_B3LYP_PC2_OPT_FREQ.chk
 ---------------------
 #p opt freq B3LYP/gen
 ---------------------
 1/14=-1,18=20,19=15,26=3,38=1/1,3;
 2/9=110,12=2,17=6,18=5,40=1/2;
 3/5=7,11=2,16=1,25=1,30=1,71=1,74=-5/1,2,3;
 4//1;
 5/5=2,38=5/2;
 6/7=2,8=2,9=2,10=2,28=1/1;
 7//1,2,3,16;
 1/14=-1,18=20,19=15,26=3/3(2);
 2/9=110/2;
 99//99;
 2/9=110/2;
 3/5=7,6=1,11=2,16=1,25=1,30=1,71=1,74=-5,82=7/1,2,3;
 4/5=5,16=3,69=1/1;
 5/5=2,38=5/2;
 7//1,2,3,16;
 1/14=-1,18=20,19=15,26=3/3(-5);
 2/9=110/2;
 6/7=2,8=2,9=2,10=2,19=2,28=1/1;
 99/9=1/99;
 Leave Link    1 at Fri Aug 27 21:18:20 2021, MaxMem= 17179869184 cpu:         5.0
 (Enter /public3/home/sc51754/softwares/g09e01/l101.exe)
 ----------------------
 4PY_B3LYP_PC2_OPT_FREQ
 ----------------------
 Symbolic Z-matrix:
 Charge =  0 Multiplicity = 1
 C                    -0.00018  -1.04887   1.19382 
 C                    -0.00018   0.30655   1.22857 
 C                     0.00022   1.11152   0. 
 C                    -0.00018   0.30655  -1.22857 
 C                    -0.00018  -1.04887  -1.19382 
 N                     0.00002  -1.72968   0. 
 H                    -0.00063  -1.66693   2.08522 
 H                    -0.00059   0.82774   2.17893 
 H                    -0.00059   0.82774  -2.17893 
 H                    -0.00063  -1.66693  -2.08522 
 O                     0.0006    2.34525   0. 
 H                     0.00063  -2.73716   0. 
 
 NAtoms=     12 NQM=       12 NQMF=       0 NMMI=      0 NMMIF=      0
                NMic=       0 NMicF=      0.
                    Isotopes and Nuclear Properties:
 (Nuclear quadrupole moments (NQMom) in fm**2, nuclear magnetic moments (NMagM)
  in nuclear magnetons)

  Atom         1           2           3           4           5           6           7           8           9          10
 IAtWgt=          12          12          12          12          12          14           1           1           1           1
 AtmWgt=  12.0000000  12.0000000  12.0000000  12.0000000  12.0000000  14.0030740   1.0078250   1.0078250   1.0078250   1.0078250
 NucSpn=           0           0           0           0           0           2           1           1           1           1
 AtZEff=   0.0000000   0.0000000   0.0000000   0.0000000   0.0000000   0.0000000   0.0000000   0.0000000   0.0000000   0.0000000
 NQMom=    0.0000000   0.0000000   0.0000000   0.0000000   0.0000000   2.0440000   0.0000000   0.0000000   0.0000000   0.0000000
 NMagM=    0.0000000   0.0000000   0.0000000   0.0000000   0.0000000   0.4037610   2.7928460   2.7928460   2.7928460   2.7928460
 AtZNuc=   6.0000000   6.0000000   6.0000000   6.0000000   6.0000000   7.0000000   1.0000000   1.0000000   1.0000000   1.0000000

  Atom        11          12
 IAtWgt=          16           1
 AtmWgt=  15.9949146   1.0078250
 NucSpn=           0           1
 AtZEff=   0.0000000   0.0000000
 NQMom=    0.0000000   0.0000000
 NMagM=    0.0000000   2.7928460
 AtZNuc=   8.0000000   1.0000000
 Leave Link  101 at Fri Aug 27 21:18:20 2021, MaxMem= 17179869184 cpu:         6.4
 (Enter /public3/home/sc51754/softwares/g09e01/l103.exe)

 GradGradGradGradGradGradGradGradGradGradGradGradGradGradGradGradGradGrad
 Berny optimization.
 Initialization pass.
                           ----------------------------
                           !    Initial Parameters    !
                           ! (Angstroms and Degrees)  !
 --------------------------                            --------------------------
 ! Name  Definition              Value          Derivative Info.                !
 --------------------------------------------------------------------------------
 ! R1    R(1,2)                  1.3559         estimate D2E/DX2                !
 ! R2    R(1,6)                  1.3743         estimate D2E/DX2                !
 ! R3    R(1,7)                  1.0847         estimate D2E/DX2                !
 ! R4    R(2,3)                  1.4688         estimate D2E/DX2                !
 ! R5    R(2,8)                  1.0839         estimate D2E/DX2                !
 ! R6    R(3,4)                  1.4688         estimate D2E/DX2                !
 ! R7    R(3,11)                 1.2337         estimate D2E/DX2                !
 ! R8    R(4,5)                  1.3559         estimate D2E/DX2                !
 ! R9    R(4,9)                  1.0839         estimate D2E/DX2                !
 ! R10   R(5,6)                  1.3743         estimate D2E/DX2                !
 ! R11   R(5,10)                 1.0847         estimate D2E/DX2                !
 ! R12   R(6,12)                 1.0075         estimate D2E/DX2                !
 ! A1    A(2,1,6)              121.1639         estimate D2E/DX2                !
 ! A2    A(2,1,7)              123.267          estimate D2E/DX2                !
 ! A3    A(6,1,7)              115.5691         estimate D2E/DX2                !
 ! A4    A(1,2,3)              121.7645         estimate D2E/DX2                !
 ! A5    A(1,2,8)              120.2096         estimate D2E/DX2                !
 ! A6    A(3,2,8)              118.0259         estimate D2E/DX2                !
 ! A7    A(2,3,4)              113.5338         estimate D2E/DX2                !
 ! A8    A(2,3,11)             123.2331         estimate D2E/DX2                !
 ! A9    A(4,3,11)             123.2331         estimate D2E/DX2                !
 ! A10   A(3,4,5)              121.7645         estimate D2E/DX2                !
 ! A11   A(3,4,9)              118.0259         estimate D2E/DX2                !
 ! A12   A(5,4,9)              120.2096         estimate D2E/DX2                !
 ! A13   A(4,5,6)              121.1639         estimate D2E/DX2                !
 ! A14   A(4,5,10)             123.267          estimate D2E/DX2                !
 ! A15   A(6,5,10)             115.5691         estimate D2E/DX2                !
 ! A16   A(1,6,5)              120.6094         estimate D2E/DX2                !
 ! A17   A(1,6,12)             119.6953         estimate D2E/DX2                !
 ! A18   A(5,6,12)             119.6953         estimate D2E/DX2                !
 ! D1    D(6,1,2,3)             -0.0087         estimate D2E/DX2                !
 ! D2    D(6,1,2,8)            179.9852         estimate D2E/DX2                !
 ! D3    D(7,1,2,3)           -179.9904         estimate D2E/DX2                !
 ! D4    D(7,1,2,8)              0.0035         estimate D2E/DX2                !
 ! D5    D(2,1,6,5)             -0.0199         estimate D2E/DX2                !
 ! D6    D(2,1,6,12)           179.9596         estimate D2E/DX2                !
 ! D7    D(7,1,6,5)            179.9631         estimate D2E/DX2                !
 ! D8    D(7,1,6,12)            -0.0574         estimate D2E/DX2                !
 ! D9    D(1,2,3,4)              0.0339         estimate D2E/DX2                !
 ! D10   D(1,2,3,11)          -179.9797         estimate D2E/DX2                !
 ! D11   D(8,2,3,4)           -179.9602         estimate D2E/DX2                !
 ! D12   D(8,2,3,11)             0.0262         estimate D2E/DX2                !
 ! D13   D(2,3,4,5)             -0.0339         estimate D2E/DX2                !
 ! D14   D(2,3,4,9)            179.9602         estimate D2E/DX2                !
 ! D15   D(11,3,4,5)           179.9797         estimate D2E/DX2                !
 ! D16   D(11,3,4,9)            -0.0262         estimate D2E/DX2                !
 ! D17   D(3,4,5,6)              0.0087         estimate D2E/DX2                !
 ! D18   D(3,4,5,10)           179.9904         estimate D2E/DX2                !
 ! D19   D(9,4,5,6)           -179.9852         estimate D2E/DX2                !
 ! D20   D(9,4,5,10)            -0.0035         estimate D2E/DX2                !
 ! D21   D(4,5,6,1)              0.0199         estimate D2E/DX2                !
 ! D22   D(4,5,6,12)          -179.9596         estimate D2E/DX2                !
 ! D23   D(10,5,6,1)          -179.9631         estimate D2E/DX2                !
 ! D24   D(10,5,6,12)            0.0574         estimate D2E/DX2                !
 --------------------------------------------------------------------------------
 Trust Radius=3.00D-01 FncErr=1.00D-07 GrdErr=1.00D-06
 Number of steps in this run=     64 maximum allowed number of steps=    100.
 GradGradGradGradGradGradGradGradGradGradGradGradGradGradGradGradGradGrad

 Leave Link  103 at Fri Aug 27 21:18:21 2021, MaxMem= 17179869184 cpu:         0.1
 (Enter /public3/home/sc51754/softwares/g09e01/l202.exe)
                          Input orientation:                          
 ---------------------------------------------------------------------
 Center     Atomic      Atomic             Coordinates (Angstroms)
 Number     Number       Type             X           Y           Z
 ---------------------------------------------------------------------
      1          6           0       -0.000184   -1.048866    1.193818
      2          6           0       -0.000184    0.306549    1.228568
      3          6           0        0.000221    1.111516    0.000000
      4          6           0       -0.000184    0.306549   -1.228568
      5          6           0       -0.000184   -1.048866   -1.193818
      6          7           0        0.000018   -1.729678    0.000000
      7          1           0       -0.000630   -1.666925    2.085223
      8          1           0       -0.000587    0.827738    2.178925
      9          1           0       -0.000587    0.827738   -2.178925
     10          1           0       -0.000630   -1.666925   -2.085223
     11          8           0        0.000597    2.345248    0.000000
     12          1           0        0.000630   -2.737158    0.000000
 ---------------------------------------------------------------------
                    Distance matrix (angstroms):
                    1          2          3          4          5
     1  C    0.000000
     2  C    1.355860   0.000000
     3  C    2.468289   1.468792   0.000000
     4  C    2.775807   2.457136   1.468792   0.000000
     5  C    2.387636   2.775807   2.468289   1.355860   0.000000
     6  N    1.374302   2.378150   2.841194   2.378150   1.374302
     7  H    1.084712   2.151385   3.473887   3.856917   3.336781
     8  H    2.119452   1.083890   2.197327   3.447122   3.859668
     9  H    3.859668   3.447122   2.197327   1.083890   2.119452
    10  H    3.336781   3.856917   3.473887   2.151385   1.084712
    11  O    3.597946   2.380268   1.233732   2.380268   3.597946
    12  H    2.067736   3.282306   3.848674   3.282306   2.067736
                    6          7          8          9         10
     6  N    0.000000
     7  H    2.086167   0.000000
     8  H    3.359775   2.496422   0.000000
     9  H    3.359775   4.940273   4.357850   0.000000
    10  H    2.086167   4.170446   4.940273   2.496422   0.000000
    11  O    4.074926   4.521691   2.655288   2.655288   4.521691
    12  H    1.007480   2.343833   4.178062   4.178062   2.343833
                   11         12
    11  O    0.000000
    12  H    5.082406   0.000000
 Stoichiometry    C5H5NO
 Framework group  CS[SG(CHNO),X(C4H4)]
 Deg. of freedom    17
 Full point group                 CS      NOp   2
 Largest Abelian subgroup         CS      NOp   2
 Largest concise Abelian subgroup CS      NOp   2
                         Standard orientation:                         
 ---------------------------------------------------------------------
 Center     Atomic      Atomic             Coordinates (Angstroms)
 Number     Number       Type             X           Y           Z
 ---------------------------------------------------------------------
      1          6           0        0.000184    1.048866    1.193818
      2          6           0        0.000184   -0.306549    1.228568
      3          6           0       -0.000221   -1.111516   -0.000000
      4          6           0        0.000184   -0.306549   -1.228568
      5          6           0        0.000184    1.048866   -1.193818
      6          7           0       -0.000018    1.729678    0.000000
      7          1           0        0.000630    1.666925    2.085223
      8          1           0        0.000587   -0.827738    2.178925
      9          1           0        0.000587   -0.827738   -2.178925
     10          1           0        0.000630    1.666925   -2.085223
     11          8           0       -0.000597   -2.345248   -0.000000
     12          1           0       -0.000630    2.737158    0.000000
 ---------------------------------------------------------------------
 Rotational constants (GHZ):      5.6935111      2.6926956      1.8281082
 Leave Link  202 at Fri Aug 27 21:18:21 2021, MaxMem= 17179869184 cpu:         4.0
 (Enter /public3/home/sc51754/softwares/g09e01/l301.exe)
 General basis read from cards:  (5D, 7F)
 Centers:       7      8      9     10     12
 S 4 1.00
     Exponent=  7.5423000000D+01 Coefficients=  2.4065000000D-03
     Exponent=  1.1350000000D+01 Coefficients=  1.8487000000D-02
     Exponent=  2.5993000000D+00 Coefficients=  8.9742000000D-02
     Exponent=  7.3513000000D-01 Coefficients=  2.8111000000D-01
 S 1 1.00
     Exponent=  2.3167000000D-01 Coefficients=  1.0000000000D+00
 S 1 1.00
     Exponent=  7.4147000000D-02 Coefficients=  1.0000000000D+00
 P 1 1.00
     Exponent=  1.6000000000D+00 Coefficients=  1.0000000000D+00
 P 1 1.00
     Exponent=  4.5000000000D-01 Coefficients=  1.0000000000D+00
 D 1 1.00
     Exponent=  1.2500000000D+00 Coefficients=  1.0000000000D+00
 ****
 Centers:       1      2      3      4      5
 S 7 1.00
     Exponent=  7.8571000000D+03 Coefficients=  5.6825000000D-04
     Exponent=  1.1787000000D+03 Coefficients=  4.3915000000D-03
     Exponent=  2.6832000000D+02 Coefficients=  2.2504000000D-02
     Exponent=  7.5948000000D+01 Coefficients=  8.6653000000D-02
     Exponent=  2.4559000000D+01 Coefficients=  2.4405000000D-01
     Exponent=  8.6212000000D+00 Coefficients=  4.4148000000D-01
     Exponent=  3.1278000000D+00 Coefficients=  3.5332000000D-01
 S 7 1.00
     Exponent=  1.1787000000D+03 Coefficients= -5.9492000000D-07
     Exponent=  2.6832000000D+02 Coefficients= -6.2748000000D-05
     Exponent=  7.5948000000D+01 Coefficients= -7.5773000000D-04
     Exponent=  2.4559000000D+01 Coefficients= -7.3308000000D-03
     Exponent=  8.6212000000D+00 Coefficients= -3.8932000000D-02
     Exponent=  3.1278000000D+00 Coefficients= -8.8908000000D-02
     Exponent=  8.2202000000D-01 Coefficients=  2.1689000000D-01
 S 1 1.00
     Exponent=  3.3017000000D-01 Coefficients=  1.0000000000D+00
 S 1 1.00
     Exponent=  1.1463000000D-01 Coefficients=  1.0000000000D+00
 P 4 1.00
     Exponent=  3.3775000000D+01 Coefficients=  6.0294000000D-03
     Exponent=  7.6766000000D+00 Coefficients=  4.3228000000D-02
     Exponent=  2.2357000000D+00 Coefficients=  1.6301000000D-01
     Exponent=  7.6447000000D-01 Coefficients=  3.6504000000D-01
 P 1 1.00
     Exponent=  2.6232000000D-01 Coefficients=  1.0000000000D+00
 P 1 1.00
     Exponent=  8.4638000000D-02 Coefficients=  1.0000000000D+00
 D 1 1.00
     Exponent=  1.4000000000D+00 Coefficients=  1.0000000000D+00
 D 1 1.00
     Exponent=  4.5000000000D-01 Coefficients=  1.0000000000D+00
 F 1 1.00
     Exponent=  9.5000000000D-01 Coefficients=  1.0000000000D+00
 ****
 Centers:       6
 S 7 1.00
     Exponent=  1.1101000000D+04 Coefficients=  5.4570000000D-04
     Exponent=  1.6653000000D+03 Coefficients=  4.2181000000D-03
     Exponent=  3.7908000000D+02 Coefficients=  2.1645000000D-02
     Exponent=  1.0730000000D+02 Coefficients=  8.3776000000D-02
     Exponent=  3.4747000000D+01 Coefficients=  2.3881000000D-01
     Exponent=  1.2249000000D+01 Coefficients=  4.3994000000D-01
     Exponent=  4.4743000000D+00 Coefficients=  3.6364000000D-01
 S 7 1.00
     Exponent=  1.6653000000D+03 Coefficients= -1.5006000000D-06
     Exponent=  3.7908000000D+02 Coefficients= -5.8753000000D-05
     Exponent=  1.0730000000D+02 Coefficients= -7.7453000000D-04
     Exponent=  3.4747000000D+01 Coefficients= -7.2161000000D-03
     Exponent=  1.2249000000D+01 Coefficients= -3.9338000000D-02
     Exponent=  4.4743000000D+00 Coefficients= -9.0611000000D-02
     Exponent=  1.2404000000D+00 Coefficients=  1.9882000000D-01
 S 1 1.00
     Exponent=  4.8743000000D-01 Coefficients=  1.0000000000D+00
 S 1 1.00
     Exponent=  1.6484000000D-01 Coefficients=  1.0000000000D+00
 P 4 1.00
     Exponent=  4.7934000000D+01 Coefficients=  6.1706000000D-03
     Exponent=  1.0999000000D+01 Coefficients=  4.4260000000D-02
     Exponent=  3.2472000000D+00 Coefficients=  1.6825000000D-01
     Exponent=  1.1114000000D+00 Coefficients=  3.6848000000D-01
 P 1 1.00
     Exponent=  3.7988000000D-01 Coefficients=  1.0000000000D+00
 P 1 1.00
     Exponent=  1.2068000000D-01 Coefficients=  1.0000000000D+00
 D 1 1.00
     Exponent=  1.8000000000D+00 Coefficients=  1.0000000000D+00
 D 1 1.00
     Exponent=  5.5000000000D-01 Coefficients=  1.0000000000D+00
 F 1 1.00
     Exponent=  1.0200000000D+00 Coefficients=  1.0000000000D+00
 ****
 Centers:      11
 S 7 1.00
     Exponent=  1.4782000000D+04 Coefficients=  5.3519000000D-04
     Exponent=  2.2173000000D+03 Coefficients=  4.1375000000D-03
     Exponent=  5.0474000000D+02 Coefficients=  2.1245000000D-02
     Exponent=  1.4287000000D+02 Coefficients=  8.2453000000D-02
     Exponent=  4.6300000000D+01 Coefficients=  2.3671000000D-01
     Exponent=  1.6337000000D+01 Coefficients=  4.4039000000D-01
     Exponent=  5.9828000000D+00 Coefficients=  3.6465000000D-01
 S 7 1.00
     Exponent=  2.2173000000D+03 Coefficients= -1.9275000000D-06
     Exponent=  5.0474000000D+02 Coefficients= -5.7964000000D-05
     Exponent=  1.4287000000D+02 Coefficients= -7.9494000000D-04
     Exponent=  4.6300000000D+01 Coefficients= -7.3125000000D-03
     Exponent=  1.6337000000D+01 Coefficients= -4.0574000000D-02
     Exponent=  5.9828000000D+00 Coefficients= -9.1594000000D-02
     Exponent=  1.6718000000D+00 Coefficients=  2.0940000000D-01
 S 1 1.00
     Exponent=  6.4662000000D-01 Coefficients=  1.0000000000D+00
 S 1 1.00
     Exponent=  2.1669000000D-01 Coefficients=  1.0000000000D+00
 P 4 1.00
     Exponent=  6.0424000000D+01 Coefficients=  6.8949000000D-03
     Exponent=  1.3935000000D+01 Coefficients=  4.9005000000D-02
     Exponent=  4.1531000000D+00 Coefficients=  1.8255000000D-01
     Exponent=  1.4158000000D+00 Coefficients=  3.7633000000D-01
 P 1 1.00
     Exponent=  4.7549000000D-01 Coefficients=  1.0000000000D+00
 P 1 1.00
     Exponent=  1.4529000000D-01 Coefficients=  1.0000000000D+00
 D 1 1.00
     Exponent=  2.2000000000D+00 Coefficients=  1.0000000000D+00
 D 1 1.00
     Exponent=  6.5000000000D-01 Coefficients=  1.0000000000D+00
 F 1 1.00
     Exponent=  1.1000000000D+00 Coefficients=  1.0000000000D+00
 ****
 Ernie: Thresh=  0.10000D-02 Tol=  0.10000D-05 Strict=F.
 Ernie:  7 primitive shells out of 220 were deleted.
 There are   183 symmetry adapted cartesian basis functions of A'  symmetry.
 There are   137 symmetry adapted cartesian basis functions of A"  symmetry.
 There are   158 symmetry adapted basis functions of A'  symmetry.
 There are   122 symmetry adapted basis functions of A"  symmetry.
   280 basis functions,   475 primitive gaussians,   320 cartesian basis functions
    25 alpha electrons       25 beta electrons
       nuclear repulsion energy       273.2804388411 Hartrees.
 IExCor=  402 DFT=T Ex+Corr=B3LYP ExCW=0 ScaHFX=  0.200000
 ScaDFX=  0.800000  0.720000  1.000000  0.810000 ScalE2=  1.000000  1.000000
 IRadAn=      0 IRanWt=     -1 IRanGd=            0 ICorTp=0 IEmpDi=  4
 NAtoms=   12 NActive=   12 NUniq=    8 SFac= 2.25D+00 NAtFMM=   60 NAOKFM=F Big=F
 Integral buffers will be    131072 words long.
 Raffenetti 2 integral format.
 Two-electron integral symmetry is turned on.
 Leave Link  301 at Fri Aug 27 21:18:21 2021, MaxMem= 17179869184 cpu:         1.9
 (Enter /public3/home/sc51754/softwares/g09e01/l302.exe)
 NPDir=0 NMtPBC=     1 NCelOv=     1 NCel=       1 NClECP=     1 NCelD=      1
         NCelK=      1 NCelE2=     1 NClLst=     1 CellRange=     0.0.
 One-electron integrals computed using PRISM.
 One-electron integral symmetry used in STVInt
 NBasis=   280 RedAO= T EigKep=  1.83D-04  NBF=   158   122
 NBsUse=   280 1.00D-06 EigRej= -1.00D+00 NBFU=   158   122
 Precomputing XC quadrature grid using
 IXCGrd= 4 IRadAn=           0 IRanWt=          -1 IRanGd=           0 AccXCQ= 0.00D+00.
 Generated NRdTot=       0 NPtTot=           0 NUsed=           0 NTot=          32
 NSgBfM=   320   320   320   320   320 MxSgAt=    12 MxSgA2=    12.
 Leave Link  302 at Fri Aug 27 21:18:21 2021, MaxMem= 17179869184 cpu:        35.8
 (Enter /public3/home/sc51754/softwares/g09e01/l303.exe)
 DipDrv:  MaxL=1.
 Leave Link  303 at Fri Aug 27 21:18:22 2021, MaxMem= 17179869184 cpu:         9.4
 (Enter /public3/home/sc51754/softwares/g09e01/l401.exe)
 ExpMin= 7.41D-02 ExpMax= 1.48D+04 ExpMxC= 5.05D+02 IAcc=2 IRadAn=         4 AccDes= 0.00D+00
 Harris functional with IExCor=  402 and IRadAn=       4 diagonalized for initial guess.
 HarFok:  IExCor=  402 AccDes= 0.00D+00 IRadAn=         4 IDoV= 1 UseB2=F ITyADJ=14
 ICtDFT=  3500011 ScaDFX=  1.000000  1.000000  1.000000  1.000000
 FoFCou: FMM=F IPFlag=           0 FMFlag=      100000 FMFlg1=           0
         NFxFlg=           0 DoJE=T BraDBF=F KetDBF=T FulRan=T
         wScrn=  0.000000 ICntrl=     500 IOpCl=  0 I1Cent=   200000004 NGrid=           0
         NMat0=    1 NMatS0=      1 NMatT0=    0 NMatD0=    1 NMtDS0=    0 NMtDT0=    0
 Petite list used in FoFCou.
 Harris En= -323.685892630574    
 JPrj=0 DoOrth=F DoCkMO=F.
 Initial guess orbital symmetries:
       Occupied  (A') (A') (A") (A') (A") (A') (A') (A') (A') (A')
                 (A") (A") (A') (A') (A") (A') (A') (A") (A') (A')
                 (A") (A') (A") (A") (A')
       Virtual   (A') (A") (A') (A') (A") (A') (A') (A") (A') (A')
                 (A") (A') (A') (A") (A") (A") (A') (A') (A") (A')
                 (A") (A') (A") (A') (A') (A') (A") (A') (A") (A')
                 (A') (A") (A') (A') (A') (A") (A') (A") (A") (A')
                 (A") (A') (A') (A') (A") (A") (A') (A") (A") (A')
                 (A') (A") (A") (A') (A') (A') (A') (A") (A') (A')
                 (A') (A') (A") (A") (A') (A") (A') (A') (A") (A")
                 (A') (A") (A") (A') (A") (A') (A') (A") (A') (A")
                 (A') (A') (A") (A") (A') (A') (A') (A') (A") (A')
                 (A") (A") (A') (A") (A") (A') (A') (A") (A') (A')
                 (A") (A') (A") (A") (A') (A") (A') (A') (A") (A')
                 (A') (A") (A') (A") (A") (A') (A') (A') (A") (A")
                 (A") (A') (A") (A') (A') (A") (A') (A") (A') (A")
                 (A') (A") (A') (A") (A') (A') (A') (A") (A') (A')
                 (A") (A") (A") (A') (A") (A') (A') (A') (A') (A")
                 (A') (A') (A") (A') (A") (A") (A') (A") (A") (A')
                 (A') (A") (A') (A") (A') (A') (A") (A") (A") (A")
                 (A') (A') (A") (A') (A") (A') (A") (A') (A') (A')
                 (A") (A') (A") (A') (A") (A') (A") (A') (A') (A")
                 (A") (A") (A') (A') (A") (A') (A") (A') (A") (A')
                 (A') (A') (A') (A") (A") (A") (A") (A') (A') (A')
                 (A') (A') (A") (A") (A") (A') (A") (A') (A") (A')
                 (A') (A") (A") (A') (A") (A") (A') (A") (A') (A")
                 (A') (A') (A") (A') (A') (A') (A") (A") (A") (A')
                 (A') (A') (A") (A') (A") (A') (A') (A") (A') (A')
                 (A") (A') (A") (A') (A')
 The electronic state of the initial guess is 1-A'.
 Leave Link  401 at Fri Aug 27 21:18:23 2021, MaxMem= 17179869184 cpu:        43.4
 (Enter /public3/home/sc51754/softwares/g09e01/l502.exe)
 Closed shell SCF:
 Using DIIS extrapolation, IDIIS=  1040.
 Integral symmetry usage will be decided dynamically.
 Keep R1 ints in memory in symmetry-blocked form, NReq=1161351758.
 IVT=      348938 IEndB=      348938 NGot= 17179869184 MDV= 16792355177
 LenX= 16792355177 LenY= 16792252336
 Requested convergence on RMS density matrix=1.00D-08 within 128 cycles.
 Requested convergence on MAX density matrix=1.00D-06.
 Requested convergence on             energy=1.00D-06.
 No special actions if energy rises.
 FoFCou: FMM=F IPFlag=           0 FMFlag=           0 FMFlg1=           0
         NFxFlg=           0 DoJE=F BraDBF=F KetDBF=F FulRan=T
         wScrn=  0.000000 ICntrl=     600 IOpCl=  0 I1Cent=           0 NGrid=           0
         NMat0=    1 NMatS0=  39340 NMatT0=    0 NMatD0=    1 NMtDS0=    0 NMtDT0=    0
 Petite list used in FoFCou.
 Integral accuracy reduced to 1.0D-05 until final iterations.

 Cycle   1  Pass 0  IDiag  1:
 E= -323.427383532444    
 DIIS: error= 3.28D-02 at cycle   1 NSaved=   1.
 NSaved= 1 IEnMin= 1 EnMin= -323.427383532444     IErMin= 1 ErrMin= 3.28D-02
 ErrMax= 3.28D-02  0.00D+00 EMaxC= 1.00D-01 BMatC= 2.35D-01 BMatP= 2.35D-01
 IDIUse=3 WtCom= 6.72D-01 WtEn= 3.28D-01
 Coeff-Com:  0.100D+01
 Coeff-En:   0.100D+01
 Coeff:      0.100D+01
 Gap=     0.043 Goal=   None    Shift=    0.000
 GapD=    0.043 DampG=0.250 DampE=0.500 DampFc=0.2500 IDamp=-1.
 Damping current iteration by 2.50D-01
 RMSDP=1.94D-02 MaxDP=2.72D+00              OVMax= 5.64D-01

 Cycle   2  Pass 0  IDiag  1:
 E= -323.361839609430     Delta-E=        0.065543923015 Rises=F Damp=T
 DIIS: error= 1.32D-02 at cycle   2 NSaved=   2.
 NSaved= 2 IEnMin= 1 EnMin= -323.427383532444     IErMin= 2 ErrMin= 1.32D-02
 ErrMax= 1.32D-02  0.00D+00 EMaxC= 1.00D-01 BMatC= 5.34D-02 BMatP= 2.35D-01
 IDIUse=3 WtCom= 8.68D-01 WtEn= 1.32D-01
 Coeff-Com:  0.756D-01 0.924D+00
 Coeff-En:   0.644D+00 0.356D+00
 Coeff:      0.151D+00 0.849D+00
 Gap=     0.218 Goal=   None    Shift=    0.000
 RMSDP=4.99D-03 MaxDP=6.78D-01 DE= 6.55D-02 OVMax= 5.18D-01

 Cycle   3  Pass 0  IDiag  1:
 E= -323.455143716637     Delta-E=       -0.093304107207 Rises=F Damp=F
 DIIS: error= 3.25D-02 at cycle   3 NSaved=   3.
 NSaved= 3 IEnMin= 3 EnMin= -323.455143716637     IErMin= 2 ErrMin= 1.32D-02
 ErrMax= 3.25D-02  0.00D+00 EMaxC= 1.00D-01 BMatC= 1.71D-01 BMatP= 5.34D-02
 IDIUse=2 WtCom= 0.00D+00 WtEn= 1.00D+00
 EnCoef did     1 forward-backward iterations
 Coeff-En:   0.134D+00 0.311D+00 0.555D+00
 Coeff:      0.134D+00 0.311D+00 0.555D+00
 Gap=     0.177 Goal=   None    Shift=    0.000
 RMSDP=3.27D-03 MaxDP=1.20D-01 DE=-9.33D-02 OVMax= 4.84D-01

 Cycle   4  Pass 0  IDiag  1:
 E= -323.391026506265     Delta-E=        0.064117210372 Rises=F Damp=F
 DIIS: error= 3.92D-02 at cycle   4 NSaved=   4.
 NSaved= 4 IEnMin= 3 EnMin= -323.455143716637     IErMin= 2 ErrMin= 1.32D-02
 ErrMax= 3.92D-02  0.00D+00 EMaxC= 1.00D-01 BMatC= 2.75D-01 BMatP= 5.34D-02
 IDIUse=2 WtCom= 0.00D+00 WtEn= 1.00D+00
 EnCoef did     3 forward-backward iterations
 Coeff-En:   0.655D-02 0.000D+00 0.548D+00 0.445D+00
 Coeff:      0.655D-02 0.000D+00 0.548D+00 0.445D+00
 Gap=     0.195 Goal=   None    Shift=    0.000
 RMSDP=2.14D-03 MaxDP=9.43D-02 DE= 6.41D-02 OVMax= 2.61D-01

 Cycle   5  Pass 0  IDiag  1:
 E= -323.632363706011     Delta-E=       -0.241337199745 Rises=F Damp=F
 DIIS: error= 6.41D-03 at cycle   5 NSaved=   5.
 NSaved= 5 IEnMin= 5 EnMin= -323.632363706011     IErMin= 5 ErrMin= 6.41D-03
 ErrMax= 6.41D-03  0.00D+00 EMaxC= 1.00D-01 BMatC= 1.48D-02 BMatP= 5.34D-02
 IDIUse=3 WtCom= 9.36D-01 WtEn= 6.41D-02
 Coeff-Com: -0.133D+00 0.251D+00 0.255D+00 0.918D-01 0.535D+00
 Coeff-En:   0.000D+00 0.000D+00 0.000D+00 0.000D+00 0.100D+01
 Coeff:     -0.125D+00 0.235D+00 0.239D+00 0.859D-01 0.565D+00
 Gap=     0.202 Goal=   None    Shift=    0.000
 RMSDP=3.99D-04 MaxDP=2.41D-02 DE=-2.41D-01 OVMax= 5.12D-02

 Cycle   6  Pass 0  IDiag  1:
 E= -323.639320459348     Delta-E=       -0.006956753337 Rises=F Damp=F
 DIIS: error= 5.16D-03 at cycle   6 NSaved=   6.
 NSaved= 6 IEnMin= 6 EnMin= -323.639320459348     IErMin= 6 ErrMin= 5.16D-03
 ErrMax= 5.16D-03  0.00D+00 EMaxC= 1.00D-01 BMatC= 4.10D-03 BMatP= 1.48D-02
 IDIUse=3 WtCom= 9.48D-01 WtEn= 5.16D-02
 Coeff-Com: -0.136D+00 0.161D+00 0.297D-01-0.358D-02 0.313D+00 0.636D+00
 Coeff-En:   0.000D+00 0.000D+00 0.000D+00 0.000D+00 0.149D+00 0.851D+00
 Coeff:     -0.129D+00 0.153D+00 0.282D-01-0.339D-02 0.304D+00 0.647D+00
 Gap=     0.204 Goal=   None    Shift=    0.000
 RMSDP=1.62D-04 MaxDP=7.64D-03 DE=-6.96D-03 OVMax= 2.42D-02

 Cycle   7  Pass 0  IDiag  1:
 E= -323.643283369264     Delta-E=       -0.003962909916 Rises=F Damp=F
 DIIS: error= 3.07D-03 at cycle   7 NSaved=   7.
 NSaved= 7 IEnMin= 7 EnMin= -323.643283369264     IErMin= 7 ErrMin= 3.07D-03
 ErrMax= 3.07D-03  0.00D+00 EMaxC= 1.00D-01 BMatC= 1.16D-03 BMatP= 4.10D-03
 IDIUse=3 WtCom= 9.69D-01 WtEn= 3.07D-02
 Coeff-Com: -0.910D-01 0.107D+00-0.123D-02 0.753D-04 0.155D+00 0.337D+00
 Coeff-Com:  0.493D+00
 Coeff-En:   0.000D+00 0.000D+00 0.000D+00 0.000D+00 0.000D+00 0.000D+00
 Coeff-En:   0.100D+01
 Coeff:     -0.882D-01 0.104D+00-0.119D-02 0.730D-04 0.150D+00 0.327D+00
 Coeff:      0.508D+00
 Gap=     0.204 Goal=   None    Shift=    0.000
 RMSDP=5.44D-05 MaxDP=2.28D-03 DE=-3.96D-03 OVMax= 6.74D-03

 Cycle   8  Pass 0  IDiag  1:
 E= -323.643907715239     Delta-E=       -0.000624345975 Rises=F Damp=F
 DIIS: error= 2.09D-03 at cycle   8 NSaved=   8.
 NSaved= 8 IEnMin= 8 EnMin= -323.643907715239     IErMin= 8 ErrMin= 2.09D-03
 ErrMax= 2.09D-03  0.00D+00 EMaxC= 1.00D-01 BMatC= 5.33D-04 BMatP= 1.16D-03
 IDIUse=3 WtCom= 9.79D-01 WtEn= 2.09D-02
 Coeff-Com: -0.354D-01 0.457D-01-0.113D-01 0.747D-02 0.124D-01-0.233D-01
 Coeff-Com:  0.204D+00 0.801D+00
 Coeff-En:   0.000D+00 0.000D+00 0.000D+00 0.000D+00 0.000D+00 0.000D+00
 Coeff-En:   0.000D+00 0.100D+01
 Coeff:     -0.347D-01 0.448D-01-0.111D-01 0.731D-02 0.121D-01-0.228D-01
 Coeff:      0.199D+00 0.805D+00
 Gap=     0.203 Goal=   None    Shift=    0.000
 RMSDP=7.11D-05 MaxDP=1.99D-03 DE=-6.24D-04 OVMax= 1.22D-02

 Cycle   9  Pass 0  IDiag  1:
 E= -323.644495446244     Delta-E=       -0.000587731005 Rises=F Damp=F
 DIIS: error= 7.64D-04 at cycle   9 NSaved=   9.
 NSaved= 9 IEnMin= 9 EnMin= -323.644495446244     IErMin= 9 ErrMin= 7.64D-04
 ErrMax= 7.64D-04  0.00D+00 EMaxC= 1.00D-01 BMatC= 8.43D-05 BMatP= 5.33D-04
 IDIUse=3 WtCom= 9.92D-01 WtEn= 7.64D-03
 Coeff-Com: -0.808D-04 0.231D-02-0.290D-02 0.389D-02-0.255D-01-0.126D+00
 Coeff-Com: -0.224D+00 0.504D+00 0.869D+00
 Coeff-En:   0.000D+00 0.000D+00 0.000D+00 0.000D+00 0.000D+00 0.000D+00
 Coeff-En:   0.000D+00 0.000D+00 0.100D+01
 Coeff:     -0.802D-04 0.229D-02-0.288D-02 0.386D-02-0.253D-01-0.125D+00
 Coeff:     -0.222D+00 0.500D+00 0.870D+00
 Gap=     0.203 Goal=   None    Shift=    0.000
 RMSDP=3.89D-05 MaxDP=1.67D-03 DE=-5.88D-04 OVMax= 6.05D-03

 Cycle  10  Pass 0  IDiag  1:
 E= -323.644582595969     Delta-E=       -0.000087149725 Rises=F Damp=F
 DIIS: error= 7.59D-05 at cycle  10 NSaved=  10.
 NSaved=10 IEnMin=10 EnMin= -323.644582595969     IErMin=10 ErrMin= 7.59D-05
 ErrMax= 7.59D-05  0.00D+00 EMaxC= 1.00D-01 BMatC= 1.37D-06 BMatP= 8.43D-05
 IDIUse=1 WtCom= 1.00D+00 WtEn= 0.00D+00
 Coeff-Com:  0.401D-03 0.521D-03-0.216D-03 0.147D-02-0.946D-02-0.579D-01
 Coeff-Com: -0.125D+00 0.207D+00 0.452D+00 0.532D+00
 Coeff:      0.401D-03 0.521D-03-0.216D-03 0.147D-02-0.946D-02-0.579D-01
 Coeff:     -0.125D+00 0.207D+00 0.452D+00 0.532D+00
 Gap=     0.203 Goal=   None    Shift=    0.000
 RMSDP=3.15D-06 MaxDP=2.03D-04 DE=-8.71D-05 OVMax= 3.60D-04

 Initial convergence to 1.0D-05 achieved.  Increase integral accuracy.
 Cycle  11  Pass 1  IDiag  1:
 E= -323.644633872160     Delta-E=       -0.000051276191 Rises=F Damp=F
 DIIS: error= 4.15D-05 at cycle   1 NSaved=   1.
 NSaved= 1 IEnMin= 1 EnMin= -323.644633872160     IErMin= 1 ErrMin= 4.15D-05
 ErrMax= 4.15D-05  0.00D+00 EMaxC= 1.00D-01 BMatC= 2.97D-07 BMatP= 2.97D-07
 IDIUse=1 WtCom= 1.00D+00 WtEn= 0.00D+00
 Coeff-Com:  0.100D+01
 Coeff:      0.100D+01
 Gap=     0.203 Goal=   None    Shift=    0.000
 RMSDP=3.15D-06 MaxDP=2.03D-04 DE=-5.13D-05 OVMax= 4.21D-04

 Cycle  12  Pass 1  IDiag  1:
 E= -323.644634062339     Delta-E=       -0.000000190179 Rises=F Damp=F
 DIIS: error= 3.10D-05 at cycle   2 NSaved=   2.
 NSaved= 2 IEnMin= 2 EnMin= -323.644634062339     IErMin= 2 ErrMin= 3.10D-05
 ErrMax= 3.10D-05  0.00D+00 EMaxC= 1.00D-01 BMatC= 1.88D-07 BMatP= 2.97D-07
 IDIUse=1 WtCom= 1.00D+00 WtEn= 0.00D+00
 Coeff-Com:  0.424D+00 0.576D+00
 Coeff:      0.424D+00 0.576D+00
 Gap=     0.203 Goal=   None    Shift=    0.000
 RMSDP=1.92D-06 MaxDP=6.70D-05 DE=-1.90D-07 OVMax= 2.47D-04

 Cycle  13  Pass 1  IDiag  1:
 E= -323.644634184537     Delta-E=       -0.000000122198 Rises=F Damp=F
 DIIS: error= 1.38D-05 at cycle   3 NSaved=   3.
 NSaved= 3 IEnMin= 3 EnMin= -323.644634184537     IErMin= 3 ErrMin= 1.38D-05
 ErrMax= 1.38D-05  0.00D+00 EMaxC= 1.00D-01 BMatC= 5.98D-08 BMatP= 1.88D-07
 IDIUse=1 WtCom= 1.00D+00 WtEn= 0.00D+00
 Coeff-Com:  0.302D-01 0.355D+00 0.614D+00
 Coeff:      0.302D-01 0.355D+00 0.614D+00
 Gap=     0.203 Goal=   None    Shift=    0.000
 RMSDP=9.64D-07 MaxDP=3.33D-05 DE=-1.22D-07 OVMax= 1.59D-04

 Cycle  14  Pass 1  IDiag  1:
 E= -323.644634231651     Delta-E=       -0.000000047114 Rises=F Damp=F
 DIIS: error= 7.89D-06 at cycle   4 NSaved=   4.
 NSaved= 4 IEnMin= 4 EnMin= -323.644634231651     IErMin= 4 ErrMin= 7.89D-06
 ErrMax= 7.89D-06  0.00D+00 EMaxC= 1.00D-01 BMatC= 1.58D-08 BMatP= 5.98D-08
 IDIUse=1 WtCom= 1.00D+00 WtEn= 0.00D+00
 Coeff-Com: -0.184D-01 0.218D+00 0.440D+00 0.360D+00
 Coeff:     -0.184D-01 0.218D+00 0.440D+00 0.360D+00
 Gap=     0.203 Goal=   None    Shift=    0.000
 RMSDP=3.75D-07 MaxDP=1.58D-05 DE=-4.71D-08 OVMax= 6.30D-05

 Cycle  15  Pass 1  IDiag  1:
 E= -323.644634245125     Delta-E=       -0.000000013475 Rises=F Damp=F
 DIIS: error= 1.10D-06 at cycle   5 NSaved=   5.
 NSaved= 5 IEnMin= 5 EnMin= -323.644634245125     IErMin= 5 ErrMin= 1.10D-06
 ErrMax= 1.10D-06  0.00D+00 EMaxC= 1.00D-01 BMatC= 2.15D-10 BMatP= 1.58D-08
 IDIUse=1 WtCom= 1.00D+00 WtEn= 0.00D+00
 Coeff-Com: -0.842D-02 0.718D-01 0.141D+00 0.163D+00 0.632D+00
 Coeff:     -0.842D-02 0.718D-01 0.141D+00 0.163D+00 0.632D+00
 Gap=     0.203 Goal=   None    Shift=    0.000
 RMSDP=6.41D-08 MaxDP=3.18D-06 DE=-1.35D-08 OVMax= 9.28D-06

 Cycle  16  Pass 1  IDiag  1:
 E= -323.644634245295     Delta-E=       -0.000000000170 Rises=F Damp=F
 DIIS: error= 5.36D-07 at cycle   6 NSaved=   6.
 NSaved= 6 IEnMin= 6 EnMin= -323.644634245295     IErMin= 6 ErrMin= 5.36D-07
 ErrMax= 5.36D-07  0.00D+00 EMaxC= 1.00D-01 BMatC= 7.06D-11 BMatP= 2.15D-10
 IDIUse=1 WtCom= 1.00D+00 WtEn= 0.00D+00
 Coeff-Com: -0.402D-02 0.287D-01 0.543D-01 0.728D-01 0.425D+00 0.424D+00
 Coeff:     -0.402D-02 0.287D-01 0.543D-01 0.728D-01 0.425D+00 0.424D+00
 Gap=     0.203 Goal=   None    Shift=    0.000
 RMSDP=2.36D-08 MaxDP=8.14D-07 DE=-1.70D-10 OVMax= 2.71D-06

 Cycle  17  Pass 1  IDiag  1:
 E= -323.644634245336     Delta-E=       -0.000000000040 Rises=F Damp=F
 DIIS: error= 1.75D-07 at cycle   7 NSaved=   7.
 NSaved= 7 IEnMin= 7 EnMin= -323.644634245336     IErMin= 7 ErrMin= 1.75D-07
 ErrMax= 1.75D-07  0.00D+00 EMaxC= 1.00D-01 BMatC= 4.31D-12 BMatP= 7.06D-11
 IDIUse=1 WtCom= 1.00D+00 WtEn= 0.00D+00
 Coeff-Com:  0.347D-03-0.432D-02-0.958D-02-0.157D-01 0.389D-01 0.170D+00
 Coeff-Com:  0.820D+00
 Coeff:      0.347D-03-0.432D-02-0.958D-02-0.157D-01 0.389D-01 0.170D+00
 Coeff:      0.820D+00
 Gap=     0.203 Goal=   None    Shift=    0.000
 RMSDP=6.80D-09 MaxDP=2.38D-07 DE=-4.04D-11 OVMax= 8.27D-07

 SCF Done:  E(RB3LYP) =  -323.644634245     A.U. after   17 cycles
            NFock= 17  Conv=0.68D-08     -V/T= 2.0043
 KE= 3.222644279612D+02 PE=-1.301585380963D+03 EE= 3.823958799150D+02
 Leave Link  502 at Fri Aug 27 21:18:29 2021, MaxMem= 17179869184 cpu:       220.4
 (Enter /public3/home/sc51754/softwares/g09e01/l601.exe)
 Copying SCF densities to generalized density rwf, IOpCl= 0 IROHF=0.

 **********************************************************************

            Population analysis using the SCF density.

 **********************************************************************

 Orbital symmetries:
       Occupied  (A') (A') (A") (A') (A') (A") (A') (A') (A') (A')
                 (A") (A") (A') (A') (A") (A') (A") (A') (A') (A')
                 (A") (A') (A") (A') (A")
       Virtual   (A') (A") (A') (A") (A') (A") (A') (A') (A') (A")
                 (A') (A') (A') (A") (A") (A") (A') (A') (A") (A')
                 (A") (A') (A") (A') (A') (A') (A") (A') (A") (A')
                 (A') (A') (A") (A') (A') (A') (A") (A") (A") (A')
                 (A") (A') (A') (A") (A') (A") (A') (A") (A") (A')
                 (A') (A") (A') (A") (A') (A') (A') (A") (A') (A')
                 (A') (A") (A') (A") (A') (A") (A') (A') (A") (A")
                 (A') (A') (A") (A") (A") (A') (A') (A") (A") (A')
                 (A') (A") (A') (A") (A') (A') (A') (A') (A') (A")
                 (A") (A") (A') (A') (A") (A") (A') (A') (A") (A')
                 (A") (A') (A") (A") (A") (A') (A') (A') (A") (A')
                 (A') (A") (A') (A") (A') (A") (A') (A') (A") (A")
                 (A") (A') (A") (A') (A') (A") (A') (A") (A') (A')
                 (A") (A") (A') (A") (A') (A') (A') (A") (A') (A')
                 (A") (A") (A") (A') (A") (A') (A') (A') (A') (A")
                 (A') (A") (A') (A') (A") (A') (A") (A") (A") (A')
                 (A') (A') (A") (A") (A") (A') (A") (A') (A") (A')
                 (A") (A') (A") (A') (A') (A') (A") (A") (A') (A")
                 (A') (A') (A') (A") (A') (A") (A") (A') (A') (A")
                 (A") (A') (A") (A") (A') (A') (A') (A') (A") (A")
                 (A') (A') (A') (A") (A") (A") (A') (A") (A') (A')
                 (A') (A") (A') (A") (A") (A') (A") (A') (A") (A')
                 (A') (A") (A") (A') (A") (A") (A') (A") (A') (A")
                 (A') (A') (A") (A') (A') (A") (A') (A") (A") (A')
                 (A') (A") (A') (A') (A") (A') (A') (A") (A') (A')
                 (A") (A') (A") (A') (A')
 The electronic state is 1-A'.
 Alpha  occ. eigenvalues --  -19.07135 -14.39567 -10.24386 -10.24385 -10.24186
 Alpha  occ. eigenvalues --  -10.18291 -10.18290  -1.00758  -0.99581  -0.79576
 Alpha  occ. eigenvalues --   -0.79489  -0.65652  -0.63203  -0.59740  -0.51384
 Alpha  occ. eigenvalues --   -0.48686  -0.46471  -0.45072  -0.44386  -0.39052
 Alpha  occ. eigenvalues --   -0.38682  -0.37034  -0.29557  -0.23492  -0.23440
 Alpha virt. eigenvalues --   -0.03158  -0.03066  -0.01805   0.02529   0.03934
 Alpha virt. eigenvalues --    0.06918   0.07220   0.11313   0.11833   0.14588
 Alpha virt. eigenvalues --    0.14713   0.15157   0.15766   0.18118   0.18433
 Alpha virt. eigenvalues --    0.21841   0.22003   0.22174   0.26663   0.27169
 Alpha virt. eigenvalues --    0.27355   0.28278   0.29462   0.29474   0.30549
 Alpha virt. eigenvalues --    0.31462   0.32906   0.34357   0.35199   0.38931
 Alpha virt. eigenvalues --    0.42160   0.43747   0.44249   0.44425   0.47941
 Alpha virt. eigenvalues --    0.48483   0.49812   0.53922   0.54634   0.57294
 Alpha virt. eigenvalues --    0.57740   0.59040   0.63710   0.64451   0.69395
 Alpha virt. eigenvalues --    0.69931   0.71130   0.74203   0.77527   0.79663
 Alpha virt. eigenvalues --    0.79757   0.84007   0.88934   0.89027   0.89617
 Alpha virt. eigenvalues --    0.93926   0.97006   0.97299   0.98130   1.05412
 Alpha virt. eigenvalues --    1.08577   1.09781   1.10324   1.10801   1.12991
 Alpha virt. eigenvalues --    1.15502   1.17037   1.19073   1.19308   1.21271
 Alpha virt. eigenvalues --    1.23147   1.23596   1.24812   1.27536   1.32331
 Alpha virt. eigenvalues --    1.32999   1.33091   1.41082   1.41306   1.43444
 Alpha virt. eigenvalues --    1.44168   1.45358   1.45471   1.45860   1.53260
 Alpha virt. eigenvalues --    1.55102   1.57195   1.62117   1.63285   1.63429
 Alpha virt. eigenvalues --    1.65487   1.66919   1.72783   1.74965   1.75504
 Alpha virt. eigenvalues --    1.76549   1.80721   1.81036   1.81804   1.88056
 Alpha virt. eigenvalues --    1.89568   1.93032   1.94366   1.99542   2.02244
 Alpha virt. eigenvalues --    2.02649   2.08841   2.11496   2.14762   2.17116
 Alpha virt. eigenvalues --    2.19147   2.20845   2.22933   2.26065   2.38947
 Alpha virt. eigenvalues --    2.39356   2.49877   2.49981   2.62275   2.78493
 Alpha virt. eigenvalues --    2.85403   2.89657   2.93655   2.93673   3.11556
 Alpha virt. eigenvalues --    3.15387   3.18250   3.19635   3.22648   3.22991
 Alpha virt. eigenvalues --    3.25662   3.29026   3.31180   3.34107   3.34843
 Alpha virt. eigenvalues --    3.42763   3.44872   3.49465   3.51897   3.53955
 Alpha virt. eigenvalues --    3.57035   3.61645   3.62148   3.64001   3.65084
 Alpha virt. eigenvalues --    3.66626   3.68813   3.75086   3.80965   3.87742
 Alpha virt. eigenvalues --    3.93580   3.93803   3.94758   3.95896   3.97015
 Alpha virt. eigenvalues --    4.00245   4.01081   4.01549   4.07181   4.07424
 Alpha virt. eigenvalues --    4.07458   4.09641   4.10360   4.13128   4.16612
 Alpha virt. eigenvalues --    4.17759   4.18041   4.18997   4.21056   4.21952
 Alpha virt. eigenvalues --    4.22009   4.25582   4.27826   4.28075   4.29142
 Alpha virt. eigenvalues --    4.30632   4.31715   4.32808   4.36669   4.36828
 Alpha virt. eigenvalues --    4.38271   4.40251   4.43950   4.44615   4.45899
 Alpha virt. eigenvalues --    4.46231   4.50960   4.51623   4.53062   4.54756
 Alpha virt. eigenvalues --    4.59433   4.59511   4.60528   4.64696   4.65432
 Alpha virt. eigenvalues --    4.69786   4.74795   4.76604   4.77081   4.77745
 Alpha virt. eigenvalues --    4.85788   4.92725   4.93252   4.93845   4.94942
 Alpha virt. eigenvalues --    4.97942   5.06740   5.07916   5.09733   5.17669
 Alpha virt. eigenvalues --    5.18314   5.23191   5.26391   5.26677   5.28084
 Alpha virt. eigenvalues --    5.32712   5.34037   5.41155   5.42776   5.42970
 Alpha virt. eigenvalues --    5.46408   5.47488   5.55273   5.59273   5.59321
 Alpha virt. eigenvalues --    5.59485   5.66883   5.68523   5.71968   5.75894
 Alpha virt. eigenvalues --    5.77123   5.88681   5.90835   5.93905   5.94660
 Alpha virt. eigenvalues --    6.06917   6.09849   6.16363   6.16802   6.24449
 Alpha virt. eigenvalues --    6.35110   6.49464   6.50739   6.52862   6.84105
 Alpha virt. eigenvalues --    6.89697   6.95029   7.20170   9.46047  12.37684
 Alpha virt. eigenvalues --   12.53824  15.28351  16.95218  18.39732  22.58599
          Condensed to atoms (all electrons):
               1          2          3          4          5          6
     1  C    4.725220   0.535928  -0.034753  -0.024446  -0.080526   0.371306
     2  C    0.535928   5.025150   0.387975  -0.044566  -0.024446  -0.065827
     3  C   -0.034753   0.387975   4.425506   0.387975  -0.034753  -0.011222
     4  C   -0.024446  -0.044566   0.387975   5.025150   0.535928  -0.065827
     5  C   -0.080526  -0.024446  -0.034753   0.535928   4.725220   0.371306
     6  N    0.371306  -0.065827  -0.011222  -0.065827   0.371306   6.325282
     7  H    0.411255  -0.021708   0.004116  -0.005830   0.006559  -0.038374
     8  H   -0.039631   0.431041  -0.034384   0.013717  -0.001221   0.004020
     9  H   -0.001221   0.013717  -0.034384   0.431041  -0.039631   0.004020
    10  H    0.006559  -0.005830   0.004116  -0.021708   0.411255  -0.038374
    11  O    0.009255  -0.091848   0.578962  -0.091848   0.009255   0.000852
    12  H   -0.031713   0.006845  -0.001180   0.006845  -0.031713   0.414139
               7          8          9         10         11         12
     1  C    0.411255  -0.039631  -0.001221   0.006559   0.009255  -0.031713
     2  C   -0.021708   0.431041   0.013717  -0.005830  -0.091848   0.006845
     3  C    0.004116  -0.034384  -0.034384   0.004116   0.578962  -0.001180
     4  C   -0.005830   0.013717   0.431041  -0.021708  -0.091848   0.006845
     5  C    0.006559  -0.001221  -0.039631   0.411255   0.009255  -0.031713
     6  N   -0.038374   0.004020   0.004020  -0.038374   0.000852   0.414139
     7  H    0.600737  -0.006314   0.000296  -0.000740  -0.000778  -0.008464
     8  H   -0.006314   0.572302   0.000061   0.000296   0.007531  -0.000472
     9  H    0.000296   0.000061   0.572302  -0.006314   0.007531  -0.000472
    10  H   -0.000740   0.000296  -0.006314   0.600737  -0.000778  -0.008464
    11  O   -0.000778   0.007531   0.007531  -0.000778   8.049708   0.000093
    12  H   -0.008464  -0.000472  -0.000472  -0.008464   0.000093   0.504614
 Mulliken charges:
               1
     1  C    0.152767
     2  C   -0.146431
     3  C    0.362025
     4  C   -0.146431
     5  C    0.152767
     6  N   -0.271300
     7  H    0.059244
     8  H    0.053053
     9  H    0.053053
    10  H    0.059244
    11  O   -0.477934
    12  H    0.149943
 Sum of Mulliken charges =  -0.00000
 Mulliken charges with hydrogens summed into heavy atoms:
               1
     1  C    0.212011
     2  C   -0.093378
     3  C    0.362025
     4  C   -0.093378
     5  C    0.212011
     6  N   -0.121358
    11  O   -0.477934
 Electronic spatial extent (au):  <R**2>=            641.9183
 Charge=             -0.0000 electrons
 Dipole moment (field-independent basis, Debye):
    X=              0.0013    Y=              7.0237    Z=             -0.0000  Tot=              7.0237
 Quadrupole moment (field-independent basis, Debye-Ang):
   XX=            -43.4120   YY=            -42.9809   ZZ=            -34.8552
   XY=             -0.0054   XZ=              0.0000   YZ=             -0.0000
 Traceless Quadrupole moment (field-independent basis, Debye-Ang):
   XX=             -2.9959   YY=             -2.5649   ZZ=              5.5608
   XY=             -0.0054   XZ=              0.0000   YZ=             -0.0000
 Octapole moment (field-independent basis, Debye-Ang**2):
  XXX=             -0.0037  YYY=             58.2795  ZZZ=              0.0000  XYY=              0.0024
  XXY=             -2.1436  XXZ=              0.0000  XZZ=              0.0089  YZZ=              3.7717
  YYZ=             -0.0000  XYZ=              0.0000
 Hexadecapole moment (field-independent basis, Debye-Ang**3):
 XXXX=            -48.7661 YYYY=           -500.8588 ZZZZ=           -267.9291 XXXY=             -0.0323
 XXXZ=             -0.0000 YYYX=             -0.0748 YYYZ=              0.0000 ZZZX=             -0.0000
 ZZZY=              0.0000 XXYY=            -93.6198 XXZZ=            -65.5573 YYZZ=           -118.3873
 XXYZ=             -0.0000 YYXZ=              0.0000 ZZXY=             -0.0068
 N-N= 2.732804388411D+02 E-N=-1.301585377895D+03  KE= 3.222644279612D+02
 Symmetry A'   KE= 2.363765729147D+02
 Symmetry A"   KE= 8.588785504652D+01
 No NMR shielding tensors so no spin-rotation constants.
 Leave Link  601 at Fri Aug 27 21:18:30 2021, MaxMem= 17179869184 cpu:        68.8
 (Enter /public3/home/sc51754/softwares/g09e01/l701.exe)
 Compute integral first derivatives.
 ... and contract with generalized density number  0.
 Leave Link  701 at Fri Aug 27 21:18:31 2021, MaxMem= 17179869184 cpu:        75.4
 (Enter /public3/home/sc51754/softwares/g09e01/l702.exe)
 L702 exits ... SP integral derivatives will be done elsewhere.
 Leave Link  702 at Fri Aug 27 21:18:31 2021, MaxMem= 17179869184 cpu:         0.2
 (Enter /public3/home/sc51754/softwares/g09e01/l703.exe)
 Compute integral first derivatives, UseDBF=F ICtDFT=           0.
 Integral derivatives from FoFJK, PRISM(SPDF).
 Calling FoFJK, ICntrl=      2127 FMM=F ISym2X=1 I1Cent= 0 IOpClX= 0 NMat=1 NMatS=1 NMatT=0.
 FoFJK:  IHMeth= 1 ICntrl=    2127 DoSepK=F KAlg= 0 I1Cent=   0 FoldK=F
 IRaf=         0 NMat=   1 IRICut=       1 DoRegI=T DoRafI=F ISym2E= 1.
 FoFCou: FMM=F IPFlag=           0 FMFlag=      100000 FMFlg1=         800
         NFxFlg=           0 DoJE=F BraDBF=F KetDBF=F FulRan=T
         wScrn=  0.000000 ICntrl=    2127 IOpCl=  0 I1Cent=           0 NGrid=           0
         NMat0=    1 NMatS0=      1 NMatT0=    0 NMatD0=    1 NMtDS0=    0 NMtDT0=    0
 Petite list used in FoFCou.
 Leave Link  703 at Fri Aug 27 21:18:34 2021, MaxMem= 17179869184 cpu:       123.6
 (Enter /public3/home/sc51754/softwares/g09e01/l716.exe)
 Dipole        = 5.20891835D-04 2.76332169D+00-8.89820027D-16
 ***** Axes restored to original set *****
 -------------------------------------------------------------------
 Center     Atomic                   Forces (Hartrees/Bohr)
 Number     Number              X              Y              Z
 -------------------------------------------------------------------
      1        6          -0.000007383    0.002278124   -0.002448368
      2        6           0.000000434   -0.002032706   -0.000801897
      3        6          -0.000016573    0.002098816    0.000000000
      4        6           0.000000434   -0.002032706    0.000801897
      5        6          -0.000007383    0.002278124    0.002448368
      6        7           0.000001935    0.001914637    0.000000000
      7        1           0.000014864    0.001871869   -0.002381774
      8        1           0.000007222   -0.001486471   -0.002326201
      9        1           0.000007222   -0.001486471    0.002326201
     10        1           0.000014864    0.001871869    0.002381774
     11        8          -0.000000454   -0.008455872   -0.000000000
     12        1          -0.000015181    0.003180786   -0.000000000
 -------------------------------------------------------------------
 Cartesian Forces:  Max     0.008455872 RMS     0.002076354
 Leave Link  716 at Fri Aug 27 21:18:34 2021, MaxMem= 17179869184 cpu:         0.3
 (Enter /public3/home/sc51754/softwares/g09e01/l103.exe)

 GradGradGradGradGradGradGradGradGradGradGradGradGradGradGradGradGradGrad
 Berny optimization.
 FormGI is forming the generalized inverse of G from B-inverse, IUseBI=4.
 Internal  Forces:  Max     0.008455872 RMS     0.002369474
 Search for a local minimum.
 Step number   1 out of a maximum of   64
 All quantities printed in internal units (Hartrees-Bohrs-Radians)
 RMS Force = .23695D-02 SwitMx=.10000D-02 MixMth= 1
 Mixed Optimization -- RFO/linear search
 Second derivative matrix not updated -- first step.
 ITU=  0
     Eigenvalues ---    0.01179   0.01465   0.01838   0.01956   0.02032
     Eigenvalues ---    0.02219   0.02234   0.02399   0.02441   0.16000
     Eigenvalues ---    0.16000   0.16000   0.16000   0.16000   0.22000
     Eigenvalues ---    0.22000   0.23391   0.25000   0.34645   0.35229
     Eigenvalues ---    0.35431   0.35431   0.35528   0.35528   0.46397
     Eigenvalues ---    0.47941   0.48075   0.51510   0.53792   0.89549
 RFO step:  Lambda=-5.97675877D-04 EMin= 1.17876314D-02
 Linear search not attempted -- first point.
 Iteration  1 RMS(Cart)=  0.00784148 RMS(Int)=  0.00000446
 Iteration  2 RMS(Cart)=  0.00000533 RMS(Int)=  0.00000058
 Iteration  3 RMS(Cart)=  0.00000000 RMS(Int)=  0.00000058
 ITry= 1 IFail=0 DXMaxC= 2.56D-02 DCOld= 1.00D+10 DXMaxT= 3.00D-01 DXLimC= 3.00D+00 Rises=F
 ClnCor:  largest displacement from symmetrization is 4.27D-12 for atom     5.
 Variable       Old X    -DE/DX   Delta X   Delta X   Delta X     New X
                                 (Linear)    (Quad)   (Total)
    R1        2.56220  -0.00669   0.00000  -0.01242  -0.01242   2.54978
    R2        2.59705  -0.00512   0.00000  -0.01047  -0.01047   2.58659
    R3        2.04981  -0.00302   0.00000  -0.00852  -0.00852   2.04129
    R4        2.77562  -0.00468   0.00000  -0.01267  -0.01267   2.76295
    R5        2.04825  -0.00275   0.00000  -0.00774  -0.00774   2.04051
    R6        2.77562  -0.00468   0.00000  -0.01267  -0.01267   2.76295
    R7        2.33142  -0.00846   0.00000  -0.00944  -0.00944   2.32198
    R8        2.56220  -0.00669   0.00000  -0.01242  -0.01242   2.54978
    R9        2.04825  -0.00275   0.00000  -0.00774  -0.00774   2.04051
   R10        2.59705  -0.00512   0.00000  -0.01047  -0.01047   2.58659
   R11        2.04981  -0.00302   0.00000  -0.00852  -0.00852   2.04129
   R12        1.90386  -0.00318   0.00000  -0.00685  -0.00685   1.89701
    A1        2.11471   0.00029   0.00000   0.00078   0.00078   2.11549
    A2        2.15142  -0.00033   0.00000  -0.00155  -0.00155   2.14987
    A3        2.01706   0.00004   0.00000   0.00077   0.00077   2.01783
    A4        2.12519  -0.00067   0.00000  -0.00236  -0.00236   2.12283
    A5        2.09805   0.00015   0.00000   0.00000   0.00000   2.09805
    A6        2.05994   0.00052   0.00000   0.00236   0.00236   2.06230
    A7        1.98154   0.00056   0.00000   0.00345   0.00345   1.98499
    A8        2.15082  -0.00028   0.00000  -0.00173  -0.00173   2.14910
    A9        2.15082  -0.00028   0.00000  -0.00173  -0.00173   2.14910
   A10        2.12519  -0.00067   0.00000  -0.00236  -0.00236   2.12283
   A11        2.05994   0.00052   0.00000   0.00236   0.00236   2.06230
   A12        2.09805   0.00015   0.00000   0.00000   0.00000   2.09805
   A13        2.11471   0.00029   0.00000   0.00078   0.00078   2.11549
   A14        2.15142  -0.00033   0.00000  -0.00155  -0.00155   2.14987
   A15        2.01706   0.00004   0.00000   0.00077   0.00077   2.01783
   A16        2.10503   0.00019   0.00000  -0.00029  -0.00029   2.10474
   A17        2.08908  -0.00010   0.00000   0.00014   0.00015   2.08922
   A18        2.08908  -0.00010   0.00000   0.00014   0.00015   2.08922
    D1       -0.00015   0.00000   0.00000   0.00010   0.00010  -0.00005
    D2        3.14133   0.00000   0.00000   0.00020   0.00020   3.14153
    D3       -3.14143  -0.00000   0.00000  -0.00014  -0.00014  -3.14157
    D4        0.00006  -0.00000   0.00000  -0.00004  -0.00004   0.00002
    D5       -0.00035   0.00001   0.00000   0.00035   0.00035   0.00001
    D6        3.14089   0.00000   0.00000   0.00015   0.00015   3.14104
    D7        3.14095   0.00001   0.00000   0.00058   0.00058   3.14153
    D8       -0.00100   0.00001   0.00000   0.00037   0.00037  -0.00063
    D9        0.00059  -0.00001   0.00000  -0.00050  -0.00050   0.00009
   D10       -3.14124   0.00000   0.00000   0.00013   0.00013  -3.14111
   D11       -3.14090  -0.00001   0.00000  -0.00060  -0.00060  -3.14149
   D12        0.00046  -0.00000   0.00000   0.00004   0.00004   0.00050
   D13       -0.00059   0.00001   0.00000   0.00050   0.00050  -0.00009
   D14        3.14090   0.00001   0.00000   0.00060   0.00060   3.14149
   D15        3.14124  -0.00000   0.00000  -0.00013  -0.00013   3.14111
   D16       -0.00046   0.00000   0.00000  -0.00004  -0.00004  -0.00050
   D17        0.00015  -0.00000   0.00000  -0.00010  -0.00010   0.00005
   D18        3.14143   0.00000   0.00000   0.00014   0.00014   3.14157
   D19       -3.14133  -0.00000   0.00000  -0.00020  -0.00020  -3.14153
   D20       -0.00006   0.00000   0.00000   0.00004   0.00004  -0.00002
   D21        0.00035  -0.00001   0.00000  -0.00035  -0.00035  -0.00001
   D22       -3.14089  -0.00000   0.00000  -0.00015  -0.00015  -3.14104
   D23       -3.14095  -0.00001   0.00000  -0.00058  -0.00058  -3.14153
   D24        0.00100  -0.00001   0.00000  -0.00037  -0.00037   0.00063
         Item               Value     Threshold  Converged?
 Maximum Force            0.008456     0.000450     NO 
 RMS     Force            0.002369     0.000300     NO 
 Maximum Displacement     0.025627     0.001800     NO 
 RMS     Displacement     0.007842     0.001200     NO 
 Predicted change in Energy=-2.992242D-04
 Lowest energy point so far.  Saving SCF results.
 GradGradGradGradGradGradGradGradGradGradGradGradGradGradGradGradGradGrad

 Leave Link  103 at Fri Aug 27 21:18:34 2021, MaxMem= 17179869184 cpu:        35.2
 (Enter /public3/home/sc51754/softwares/g09e01/l202.exe)
                          Input orientation:                          
 ---------------------------------------------------------------------
 Center     Atomic      Atomic             Coordinates (Angstroms)
 Number     Number       Type             X           Y           Z
 ---------------------------------------------------------------------
      1          6           0       -0.000218   -1.045055    1.188908
      2          6           0       -0.000209    0.303767    1.224343
      3          6           0       -0.000142    1.102948    0.000000
      4          6           0       -0.000209    0.303767   -1.224343
      5          6           0       -0.000218   -1.045055   -1.188908
      6          7           0       -0.000226   -1.723295   -0.000000
      7          1           0       -0.000291   -1.659735    2.077169
      8          1           0       -0.000260    0.822388    2.171437
      9          1           0       -0.000260    0.822388   -2.171437
     10          1           0       -0.000291   -1.659735   -2.077169
     11          8           0        0.000369    2.331687    0.000000
     12          1           0        0.000250   -2.727152   -0.000000
 ---------------------------------------------------------------------
                    Distance matrix (angstroms):
                    1          2          3          4          5
     1  C    0.000000
     2  C    1.349287   0.000000
     3  C    2.455080   1.462090   0.000000
     4  C    2.764616   2.448687   1.462090   0.000000
     5  C    2.377816   2.764616   2.455080   1.349287   0.000000
     6  N    1.368763   2.368121   2.826244   2.368121   1.368763
     7  H    1.080203   2.140712   3.456450   3.841266   3.323416
     8  H    2.110144   1.079794   2.189487   3.435156   3.844381
     9  H    3.844381   3.435156   2.189487   1.079794   2.110144
    10  H    3.323416   3.841266   3.456450   2.140712   1.080203
    11  O    3.579928   2.368855   1.228739   2.368855   3.579928
    12  H    2.059843   3.268866   3.830100   3.268866   2.059843
                    6          7          8          9         10
     6  N    0.000000
     7  H    2.078141   0.000000
     8  H    3.345989   2.483912   0.000000
     9  H    3.345989   4.920527   4.342875   0.000000
    10  H    2.078141   4.154338   4.920527   2.483912   0.000000
    11  O    4.054982   4.499564   2.644451   2.644451   4.499564
    12  H    1.003857   2.335383   4.161055   4.161055   2.335383
                   11         12
    11  O    0.000000
    12  H    5.058839   0.000000
 Stoichiometry    C5H5NO
 Framework group  CS[SG(CHNO),X(C4H4)]
 Deg. of freedom    17
 Full point group                 CS      NOp   2
 RotChk:  IX=3 Diff= 9.41D-06
 Largest Abelian subgroup         CS      NOp   2
 Largest concise Abelian subgroup CS      NOp   2
                         Standard orientation:                         
 ---------------------------------------------------------------------
 Center     Atomic      Atomic             Coordinates (Angstroms)
 Number     Number       Type             X           Y           Z
 ---------------------------------------------------------------------
      1          6           0        0.000102    1.043271    1.188908
      2          6           0        0.000102   -0.305551    1.224343
      3          6           0        0.000040   -1.104732   -0.000000
      4          6           0        0.000102   -0.305551   -1.224343
      5          6           0        0.000102    1.043271   -1.188908
      6          7           0        0.000106    1.721512    0.000000
      7          1           0        0.000171    1.657951    2.077169
      8          1           0        0.000156   -0.824172    2.171437
      9          1           0        0.000156   -0.824172   -2.171437
     10          1           0        0.000171    1.657951   -2.077169
     11          8           0       -0.000463   -2.333470   -0.000000
     12          1           0       -0.000377    2.725369    0.000000
 ---------------------------------------------------------------------
 Rotational constants (GHZ):      5.7363384      2.7200424      1.8451255
 Leave Link  202 at Fri Aug 27 21:18:35 2021, MaxMem= 17179869184 cpu:         7.5
 (Enter /public3/home/sc51754/softwares/g09e01/l301.exe)
 Basis read from rwf:  (5D, 7F)
 No pseudopotential information found on rwf file.
 There are   183 symmetry adapted cartesian basis functions of A'  symmetry.
 There are   137 symmetry adapted cartesian basis functions of A"  symmetry.
 There are   158 symmetry adapted basis functions of A'  symmetry.
 There are   122 symmetry adapted basis functions of A"  symmetry.
   280 basis functions,   475 primitive gaussians,   320 cartesian basis functions
    25 alpha electrons       25 beta electrons
       nuclear repulsion energy       274.4933131430 Hartrees.
 IExCor=  402 DFT=T Ex+Corr=B3LYP ExCW=0 ScaHFX=  0.200000
 ScaDFX=  0.800000  0.720000  1.000000  0.810000 ScalE2=  1.000000  1.000000
 IRadAn=      0 IRanWt=     -1 IRanGd=            0 ICorTp=0 IEmpDi=  4
 NAtoms=   12 NActive=   12 NUniq=    8 SFac= 2.25D+00 NAtFMM=   60 NAOKFM=F Big=F
 Integral buffers will be    131072 words long.
 Raffenetti 2 integral format.
 Two-electron integral symmetry is turned on.
 No density basis found on file   724.
 Leave Link  301 at Fri Aug 27 21:18:35 2021, MaxMem= 17179869184 cpu:         0.9
 (Enter /public3/home/sc51754/softwares/g09e01/l302.exe)
 NPDir=0 NMtPBC=     1 NCelOv=     1 NCel=       1 NClECP=     1 NCelD=      1
         NCelK=      1 NCelE2=     1 NClLst=     1 CellRange=     0.0.
 One-electron integrals computed using PRISM.
 One-electron integral symmetry used in STVInt
 NBasis=   280 RedAO= T EigKep=  1.78D-04  NBF=   158   122
 NBsUse=   280 1.00D-06 EigRej= -1.00D+00 NBFU=   158   122
 Precomputing XC quadrature grid using
 IXCGrd= 4 IRadAn=           0 IRanWt=          -1 IRanGd=           0 AccXCQ= 0.00D+00.
 Generated NRdTot=       0 NPtTot=           0 NUsed=           0 NTot=          32
 NSgBfM=   320   320   320   320   320 MxSgAt=    12 MxSgA2=    12.
 Leave Link  302 at Fri Aug 27 21:18:36 2021, MaxMem= 17179869184 cpu:        42.7
 (Enter /public3/home/sc51754/softwares/g09e01/l303.exe)
 DipDrv:  MaxL=1.
 Leave Link  303 at Fri Aug 27 21:18:36 2021, MaxMem= 17179869184 cpu:        13.7
 (Enter /public3/home/sc51754/softwares/g09e01/l401.exe)
 Initial guess from the checkpoint file:  "4PY_B3LYP_PC2_OPT_FREQ.chk"
 B after Tr=     0.000000    0.000000    0.000000
         Rot=    1.000000   -0.000000    0.000000   -0.000018 Ang=  -0.00 deg.
 Guess basis will be translated and rotated to current coordinates.
 JPrj=2 DoOrth=T DoCkMO=T.
 Initial guess orbital symmetries:
       Occupied  (A') (A') (A") (A') (A') (A") (A') (A') (A') (A')
                 (A") (A") (A') (A') (A") (A') (A") (A') (A') (A')
                 (A") (A') (A") (A') (A")
       Virtual   (A') (A') (A') (A') (A') (A') (A') (A') (A') (A')
                 (A') (A') (A') (A') (A') (A') (A') (A') (A') (A')
                 (A') (A') (A') (A') (A') (A') (A') (A') (A') (A')
                 (A') (A') (A') (A') (A') (A') (A') (A') (A') (A')
                 (A') (A') (A') (A') (A') (A') (A') (A') (A') (A')
                 (A') (A') (A') (A') (A') (A') (A') (A') (A') (A')
                 (A') (A') (A') (A') (A') (A') (A') (A') (A') (A')
                 (A') (A') (A') (A') (A') (A') (A') (A') (A') (A')
                 (A') (A') (A') (A') (A') (A') (A') (A') (A') (A')
                 (A') (A') (A') (A') (A') (A') (A') (A') (A') (A')
                 (A') (A') (A') (A') (A') (A') (A') (A') (A') (A')
                 (A') (A') (A') (A') (A') (A') (A') (A') (A') (A')
                 (A') (A') (A') (A') (A') (A') (A') (A') (A') (A')
                 (A') (A') (A') (A') (A') (A') (A') (A') (A') (A')
                 (A') (A') (A") (A") (A") (A") (A") (A") (A") (A")
                 (A") (A") (A") (A") (A") (A") (A") (A") (A") (A")
                 (A") (A") (A") (A") (A") (A") (A") (A") (A") (A")
                 (A") (A") (A") (A") (A") (A") (A") (A") (A") (A")
                 (A") (A") (A") (A") (A") (A") (A") (A") (A") (A")
                 (A") (A") (A") (A") (A") (A") (A") (A") (A") (A")
                 (A") (A") (A") (A") (A") (A") (A") (A") (A") (A")
                 (A") (A") (A") (A") (A") (A") (A") (A") (A") (A")
                 (A") (A") (A") (A") (A") (A") (A") (A") (A") (A")
                 (A") (A") (A") (A") (A") (A") (A") (A") (A") (A")
                 (A") (A") (A") (A") (A") (A") (A") (A") (A") (A")
                 (A") (A") (A") (A") (A")
 The electronic state of the initial guess is 1-A'.
 Generating alternative initial guess.
 ExpMin= 7.41D-02 ExpMax= 1.48D+04 ExpMxC= 5.05D+02 IAcc=2 IRadAn=         4 AccDes= 0.00D+00
 Harris functional with IExCor=  402 and IRadAn=       4 diagonalized for initial guess.
 HarFok:  IExCor=  402 AccDes= 0.00D+00 IRadAn=         4 IDoV= 1 UseB2=F ITyADJ=14
 ICtDFT=  3500011 ScaDFX=  1.000000  1.000000  1.000000  1.000000
 FoFCou: FMM=F IPFlag=           0 FMFlag=      100000 FMFlg1=           0
         NFxFlg=           0 DoJE=T BraDBF=F KetDBF=T FulRan=T
         wScrn=  0.000000 ICntrl=     500 IOpCl=  0 I1Cent=   200000004 NGrid=           0
         NMat0=    1 NMatS0=      1 NMatT0=    0 NMatD0=    1 NMtDS0=    0 NMtDT0=    0
 Petite list used in FoFCou.
 Harris En= -323.690098064186    
 Leave Link  401 at Fri Aug 27 21:18:38 2021, MaxMem= 17179869184 cpu:        89.9
 (Enter /public3/home/sc51754/softwares/g09e01/l502.exe)
 Closed shell SCF:
 Using DIIS extrapolation, IDIIS=  1040.
 Integral symmetry usage will be decided dynamically.
 Keep R1 ints in memory in symmetry-blocked form, NReq=1161351758.
 IVT=      348938 IEndB=      348938 NGot= 17179869184 MDV= 16792355177
 LenX= 16792355177 LenY= 16792252336
 Requested convergence on RMS density matrix=1.00D-08 within 128 cycles.
 Requested convergence on MAX density matrix=1.00D-06.
 Requested convergence on             energy=1.00D-06.
 No special actions if energy rises.
 FoFCou: FMM=F IPFlag=           0 FMFlag=           0 FMFlg1=           0
         NFxFlg=           0 DoJE=F BraDBF=F KetDBF=F FulRan=T
         wScrn=  0.000000 ICntrl=     600 IOpCl=  0 I1Cent=           0 NGrid=           0
         NMat0=    1 NMatS0=  39340 NMatT0=    0 NMatD0=    1 NMtDS0=    0 NMtDT0=    0
 Petite list used in FoFCou.
 Integral accuracy reduced to 1.0D-05 until final iterations.

 Cycle   1  Pass 0  IDiag  1:
 E= -323.644792466942    
 DIIS: error= 4.60D-04 at cycle   1 NSaved=   1.
 NSaved= 1 IEnMin= 1 EnMin= -323.644792466942     IErMin= 1 ErrMin= 4.60D-04
 ErrMax= 4.60D-04  0.00D+00 EMaxC= 1.00D-01 BMatC= 8.59D-05 BMatP= 8.59D-05
 IDIUse=3 WtCom= 9.95D-01 WtEn= 4.60D-03
 Coeff-Com:  0.100D+01
 Coeff-En:   0.100D+01
 Coeff:      0.100D+01
 Gap=     0.584 Goal=   None    Shift=    0.000
 RMSDP=3.62D-05 MaxDP=9.74D-04              OVMax= 2.10D-03

 Cycle   2  Pass 0  IDiag  1:
 E= -323.644848847925     Delta-E=       -0.000056380984 Rises=F Damp=F
 DIIS: error= 3.10D-04 at cycle   2 NSaved=   2.
 NSaved= 2 IEnMin= 2 EnMin= -323.644848847925     IErMin= 2 ErrMin= 3.10D-04
 ErrMax= 3.10D-04  0.00D+00 EMaxC= 1.00D-01 BMatC= 1.92D-05 BMatP= 8.59D-05
 IDIUse=3 WtCom= 9.97D-01 WtEn= 3.10D-03
 Coeff-Com:  0.262D+00 0.738D+00
 Coeff-En:   0.000D+00 0.100D+01
 Coeff:      0.262D+00 0.738D+00
 Gap=     0.205 Goal=   None    Shift=    0.000
 RMSDP=2.16D-05 MaxDP=8.49D-04 DE=-5.64D-05 OVMax= 2.74D-03

 Cycle   3  Pass 0  IDiag  1:
 E= -323.644849668901     Delta-E=       -0.000000820976 Rises=F Damp=F
 DIIS: error= 2.91D-04 at cycle   3 NSaved=   3.
 NSaved= 3 IEnMin= 3 EnMin= -323.644849668901     IErMin= 3 ErrMin= 2.91D-04
 ErrMax= 2.91D-04  0.00D+00 EMaxC= 1.00D-01 BMatC= 1.99D-05 BMatP= 1.92D-05
 IDIUse=3 WtCom= 9.97D-01 WtEn= 2.91D-03
 Coeff-Com:  0.598D-01 0.498D+00 0.442D+00
 Coeff-En:   0.000D+00 0.490D+00 0.510D+00
 Coeff:      0.596D-01 0.498D+00 0.442D+00
 Gap=     0.204 Goal=   None    Shift=    0.000
 RMSDP=1.55D-05 MaxDP=7.60D-04 DE=-8.21D-07 OVMax= 2.25D-03

 Cycle   4  Pass 0  IDiag  1:
 E= -323.644864895444     Delta-E=       -0.000015226542 Rises=F Damp=F
 DIIS: error= 1.44D-04 at cycle   4 NSaved=   4.
 NSaved= 4 IEnMin= 4 EnMin= -323.644864895444     IErMin= 4 ErrMin= 1.44D-04
 ErrMax= 1.44D-04  0.00D+00 EMaxC= 1.00D-01 BMatC= 2.70D-06 BMatP= 1.92D-05
 IDIUse=3 WtCom= 9.99D-01 WtEn= 1.44D-03
 Coeff-Com:  0.354D-02 0.245D+00 0.305D+00 0.446D+00
 Coeff-En:   0.000D+00 0.000D+00 0.835D-01 0.916D+00
 Coeff:      0.354D-02 0.245D+00 0.304D+00 0.447D+00
 Gap=     0.204 Goal=   None    Shift=    0.000
 RMSDP=5.92D-06 MaxDP=2.53D-04 DE=-1.52D-05 OVMax= 7.33D-04

 Initial convergence to 1.0D-05 achieved.  Increase integral accuracy.
 Cycle   5  Pass 1  IDiag  1:
 E= -323.644915518399     Delta-E=       -0.000050622956 Rises=F Damp=F
 DIIS: error= 4.20D-05 at cycle   1 NSaved=   1.
 NSaved= 1 IEnMin= 1 EnMin= -323.644915518399     IErMin= 1 ErrMin= 4.20D-05
 ErrMax= 4.20D-05  0.00D+00 EMaxC= 1.00D-01 BMatC= 2.49D-07 BMatP= 2.49D-07
 IDIUse=1 WtCom= 1.00D+00 WtEn= 0.00D+00
 Coeff-Com:  0.100D+01
 Coeff:      0.100D+01
 Gap=     0.204 Goal=   None    Shift=    0.000
 RMSDP=5.92D-06 MaxDP=2.53D-04 DE=-5.06D-05 OVMax= 4.68D-04

 Cycle   6  Pass 1  IDiag  1:
 E= -323.644915676559     Delta-E=       -0.000000158160 Rises=F Damp=F
 DIIS: error= 2.45D-05 at cycle   2 NSaved=   2.
 NSaved= 2 IEnMin= 2 EnMin= -323.644915676559     IErMin= 2 ErrMin= 2.45D-05
 ErrMax= 2.45D-05  0.00D+00 EMaxC= 1.00D-01 BMatC= 1.67D-07 BMatP= 2.49D-07
 IDIUse=1 WtCom= 1.00D+00 WtEn= 0.00D+00
 Coeff-Com:  0.427D+00 0.573D+00
 Coeff:      0.427D+00 0.573D+00
 Gap=     0.204 Goal=   None    Shift=    0.000
 RMSDP=2.44D-06 MaxDP=7.19D-05 DE=-1.58D-07 OVMax= 3.61D-04

 Cycle   7  Pass 1  IDiag  1:
 E= -323.644915745264     Delta-E=       -0.000000068705 Rises=F Damp=F
 DIIS: error= 2.10D-05 at cycle   3 NSaved=   3.
 NSaved= 3 IEnMin= 3 EnMin= -323.644915745264     IErMin= 3 ErrMin= 2.10D-05
 ErrMax= 2.10D-05  0.00D+00 EMaxC= 1.00D-01 BMatC= 1.08D-07 BMatP= 1.67D-07
 IDIUse=1 WtCom= 1.00D+00 WtEn= 0.00D+00
 Coeff-Com:  0.360D-01 0.436D+00 0.528D+00
 Coeff:      0.360D-01 0.436D+00 0.528D+00
 Gap=     0.204 Goal=   None    Shift=    0.000
 RMSDP=1.20D-06 MaxDP=4.06D-05 DE=-6.87D-08 OVMax= 2.10D-04

 Cycle   8  Pass 1  IDiag  1:
 E= -323.644915849513     Delta-E=       -0.000000104249 Rises=F Damp=F
 DIIS: error= 8.20D-06 at cycle   4 NSaved=   4.
 NSaved= 4 IEnMin= 4 EnMin= -323.644915849513     IErMin= 4 ErrMin= 8.20D-06
 ErrMax= 8.20D-06  0.00D+00 EMaxC= 1.00D-01 BMatC= 1.24D-08 BMatP= 1.08D-07
 IDIUse=1 WtCom= 1.00D+00 WtEn= 0.00D+00
 Coeff-Com: -0.182D-01 0.232D+00 0.345D+00 0.441D+00
 Coeff:     -0.182D-01 0.232D+00 0.345D+00 0.441D+00
 Gap=     0.204 Goal=   None    Shift=    0.000
 RMSDP=2.95D-07 MaxDP=1.18D-05 DE=-1.04D-07 OVMax= 3.95D-05

 Cycle   9  Pass 1  IDiag  1:
 E= -323.644915860082     Delta-E=       -0.000000010569 Rises=F Damp=F
 DIIS: error= 1.75D-06 at cycle   5 NSaved=   5.
[...]
 Iteration  2 RMS(Cart)=  0.00000017 RMS(Int)=  0.00000017
 ITry= 1 IFail=0 DXMaxC= 1.36D-03 DCOld= 1.00D+10 DXMaxT= 3.00D-01 DXLimC= 3.00D+00 Rises=F
 ClnCor:  largest displacement from symmetrization is 7.39D-10 for atom     9.
 Variable       Old X    -DE/DX   Delta X   Delta X   Delta X     New X
                                 (Linear)    (Quad)   (Total)
    R1        2.55123  -0.00007   0.00000  -0.00011  -0.00011   2.55112
    R2        2.58643  -0.00002   0.00000  -0.00004  -0.00004   2.58639
    R3        2.04186  -0.00002   0.00000  -0.00005  -0.00005   2.04181
    R4        2.76427  -0.00002   0.00000  -0.00005  -0.00005   2.76422
    R5        2.04063  -0.00000   0.00000  -0.00000  -0.00000   2.04063
    R6        2.76427  -0.00002   0.00000  -0.00005  -0.00005   2.76422
    R7        2.32217  -0.00007   0.00000  -0.00009  -0.00009   2.32208
    R8        2.55123  -0.00007   0.00000  -0.00011  -0.00011   2.55112
    R9        2.04063  -0.00000   0.00000  -0.00000  -0.00000   2.04063
   R10        2.58643  -0.00002   0.00000  -0.00004  -0.00004   2.58639
   R11        2.04186  -0.00002   0.00000  -0.00005  -0.00005   2.04181
   R12        1.89717  -0.00000   0.00000  -0.00000  -0.00000   1.89717
    A1        2.11603  -0.00000   0.00000  -0.00001  -0.00001   2.11602
    A2        2.14883  -0.00000   0.00000  -0.00003  -0.00003   2.14880
    A3        2.01832   0.00001   0.00000   0.00005   0.00005   2.01836
    A4        2.12294  -0.00000   0.00000   0.00001   0.00001   2.12295
    A5        2.09830  -0.00001   0.00000  -0.00007  -0.00007   2.09823
    A6        2.06195   0.00001   0.00000   0.00006   0.00006   2.06200
    A7        1.98413   0.00000   0.00000  -0.00001  -0.00001   1.98412
    A8        2.14953  -0.00000   0.00000   0.00001   0.00000   2.14953
    A9        2.14953  -0.00000   0.00000   0.00001   0.00000   2.14953
   A10        2.12294  -0.00000   0.00000   0.00001   0.00001   2.12295
   A11        2.06195   0.00001   0.00000   0.00006   0.00006   2.06200
   A12        2.09830  -0.00001   0.00000  -0.00007  -0.00007   2.09823
   A13        2.11603  -0.00000   0.00000  -0.00001  -0.00001   2.11602
   A14        2.14883  -0.00000   0.00000  -0.00003  -0.00003   2.14880
   A15        2.01832   0.00001   0.00000   0.00005   0.00005   2.01836
   A16        2.10430   0.00001   0.00000   0.00001   0.00001   2.10431
   A17        2.08944  -0.00000   0.00000  -0.00000  -0.00000   2.08944
   A18        2.08944  -0.00000   0.00000  -0.00000  -0.00000   2.08944
    D1        0.00034  -0.00002   0.00000  -0.00034  -0.00034  -0.00000
    D2       -3.14145  -0.00001   0.00000  -0.00014  -0.00014  -3.14159
    D3       -3.14130  -0.00002   0.00000  -0.00029  -0.00029   3.14159
    D4        0.00010  -0.00001   0.00000  -0.00010  -0.00010   0.00000
    D5        0.00026  -0.00001   0.00000  -0.00026  -0.00026   0.00000
    D6        3.14129   0.00000   0.00000   0.00030   0.00030   3.14159
    D7       -3.14129  -0.00001   0.00000  -0.00030  -0.00030  -3.14159
    D8       -0.00026   0.00000   0.00000   0.00026   0.00026  -0.00000
    D9       -0.00085   0.00004   0.00000   0.00085   0.00085   0.00000
   D10       -3.14035  -0.00005   0.00000  -0.00124  -0.00124  -3.14159
   D11        3.14093   0.00004   0.00000   0.00066   0.00066   3.14159
   D12        0.00143  -0.00006   0.00000  -0.00143  -0.00143   0.00000
   D13        0.00085  -0.00004   0.00000  -0.00085  -0.00085  -0.00000
   D14       -3.14093  -0.00004   0.00000  -0.00066  -0.00066  -3.14159
   D15        3.14035   0.00005   0.00000   0.00124   0.00124   3.14159
   D16       -0.00143   0.00006   0.00000   0.00143   0.00143  -0.00000
   D17       -0.00034   0.00002   0.00000   0.00034   0.00034   0.00000
   D18        3.14130   0.00002   0.00000   0.00029   0.00029  -3.14159
   D19        3.14145   0.00001   0.00000   0.00014   0.00014   3.14159
   D20       -0.00010   0.00001   0.00000   0.00010   0.00010  -0.00000
   D21       -0.00026   0.00001   0.00000   0.00026   0.00026  -0.00000
   D22       -3.14129  -0.00000   0.00000  -0.00030  -0.00030  -3.14159
   D23        3.14129   0.00001   0.00000   0.00030   0.00030   3.14159
   D24        0.00026  -0.00000   0.00000  -0.00026  -0.00026   0.00000
         Item               Value     Threshold  Converged?
 Maximum Force            0.000069     0.000450     YES
 RMS     Force            0.000026     0.000300     YES
 Maximum Displacement     0.001358     0.001800     YES
 RMS     Displacement     0.000250     0.001200     YES
 Predicted change in Energy=-2.395327D-07
 Optimization completed.
    -- Stationary point found.
                           ----------------------------
                           !   Optimized Parameters   !
                           ! (Angstroms and Degrees)  !
 --------------------------                            --------------------------
 ! Name  Definition              Value          Derivative Info.                !
 --------------------------------------------------------------------------------
 ! R1    R(1,2)                  1.3501         -DE/DX =   -0.0001              !
 ! R2    R(1,6)                  1.3687         -DE/DX =    0.0                 !
 ! R3    R(1,7)                  1.0805         -DE/DX =    0.0                 !
 ! R4    R(2,3)                  1.4628         -DE/DX =    0.0                 !
 ! R5    R(2,8)                  1.0799         -DE/DX =    0.0                 !
 ! R6    R(3,4)                  1.4628         -DE/DX =    0.0                 !
 ! R7    R(3,11)                 1.2288         -DE/DX =   -0.0001              !
 ! R8    R(4,5)                  1.3501         -DE/DX =   -0.0001              !
 ! R9    R(4,9)                  1.0799         -DE/DX =    0.0                 !
 ! R10   R(5,6)                  1.3687         -DE/DX =    0.0                 !
 ! R11   R(5,10)                 1.0805         -DE/DX =    0.0                 !
 ! R12   R(6,12)                 1.0039         -DE/DX =    0.0                 !
 ! A1    A(2,1,6)              121.2398         -DE/DX =    0.0                 !
 ! A2    A(2,1,7)              123.1191         -DE/DX =    0.0                 !
 ! A3    A(6,1,7)              115.6411         -DE/DX =    0.0                 !
 ! A4    A(1,2,3)              121.6354         -DE/DX =    0.0                 !
 ! A5    A(1,2,8)              120.2238         -DE/DX =    0.0                 !
 ! A6    A(3,2,8)              118.1408         -DE/DX =    0.0                 !
 ! A7    A(2,3,4)              113.6821         -DE/DX =    0.0                 !
 ! A8    A(2,3,11)             123.1589         -DE/DX =    0.0                 !
 ! A9    A(4,3,11)             123.1589         -DE/DX =    0.0                 !
 ! A10   A(3,4,5)              121.6354         -DE/DX =    0.0                 !
 ! A11   A(3,4,9)              118.1408         -DE/DX =    0.0                 !
 ! A12   A(5,4,9)              120.2238         -DE/DX =    0.0                 !
 ! A13   A(4,5,6)              121.2398         -DE/DX =    0.0                 !
 ! A14   A(4,5,10)             123.1191         -DE/DX =    0.0                 !
 ! A15   A(6,5,10)             115.6411         -DE/DX =    0.0                 !
 ! A16   A(1,6,5)              120.5676         -DE/DX =    0.0                 !
 ! A17   A(1,6,12)             119.7162         -DE/DX =    0.0                 !
 ! A18   A(5,6,12)             119.7162         -DE/DX =    0.0                 !
 ! D1    D(6,1,2,3)              0.0192         -DE/DX =    0.0                 !
 ! D2    D(6,1,2,8)           -179.9917         -DE/DX =    0.0                 !
 ! D3    D(7,1,2,3)            180.0167         -DE/DX =    0.0                 !
 ! D4    D(7,1,2,8)              0.0057         -DE/DX =    0.0                 !
 ! D5    D(2,1,6,5)              0.015          -DE/DX =    0.0                 !
 ! D6    D(2,1,6,12)           179.9827         -DE/DX =    0.0                 !
 ! D7    D(7,1,6,5)           -179.9826         -DE/DX =    0.0                 !
 ! D8    D(7,1,6,12)            -0.0149         -DE/DX =    0.0                 !
 ! D9    D(1,2,3,4)             -0.0487         -DE/DX =    0.0                 !
 ! D10   D(1,2,3,11)          -179.929          -DE/DX =    0.0                 !
 ! D11   D(8,2,3,4)            179.962          -DE/DX =    0.0                 !
 ! D12   D(8,2,3,11)             0.0817         -DE/DX =   -0.0001              !
 ! D13   D(2,3,4,5)              0.0487         -DE/DX =    0.0                 !
 ! D14   D(2,3,4,9)           -179.962          -DE/DX =    0.0                 !
 ! D15   D(11,3,4,5)           179.929          -DE/DX =    0.0                 !
 ! D16   D(11,3,4,9)            -0.0817         -DE/DX =    0.0001              !
 ! D17   D(3,4,5,6)             -0.0192         -DE/DX =    0.0                 !
 ! D18   D(3,4,5,10)          -180.0167         -DE/DX =    0.0                 !
 ! D19   D(9,4,5,6)            179.9917         -DE/DX =    0.0                 !
 ! D20   D(9,4,5,10)            -0.0057         -DE/DX =    0.0                 !
 ! D21   D(4,5,6,1)             -0.015          -DE/DX =    0.0                 !
 ! D22   D(4,5,6,12)          -179.9827         -DE/DX =    0.0                 !
 ! D23   D(10,5,6,1)           179.9826         -DE/DX =    0.0                 !
 ! D24   D(10,5,6,12)            0.0149         -DE/DX =    0.0                 !
 --------------------------------------------------------------------------------
 GradGradGradGradGradGradGradGradGradGradGradGradGradGradGradGradGradGrad

 Leave Link  103 at Fri Aug 27 21:19:45 2021, MaxMem= 17179869184 cpu:        72.2
 (Enter /public3/home/sc51754/softwares/g09e01/l9999.exe)
 1\1\GINC-T1507\Freq\RB3LYP\Gen\C5H5N1O1\SC51754\27-Aug-2021\0\\#P Geom
 =AllCheck Guess=TCheck SCRF=Check GenChk RB3LYP/ChkBas Freq\\4PY_B3LYP
 _PC2_OPT_FREQ\\0,1\C,-0.0002047503,-1.0456176239,1.1886874162\C,-0.000
 2272412,0.3039587838,1.2245826416\C,-0.0008201804,1.1040497735,0.\C,-0
 .0002272412,0.3039587838,-1.2245826416\C,-0.0002047503,-1.0456176239,-
 1.1886874162\N,-0.0003451368,-1.7240785733,0.\H,-0.000036561,-1.659838
 5407,2.0776338701\H,0.0000204484,0.8225355141,2.1717711382\H,0.0000204
 484,0.8225355141,-2.1717711382\H,-0.000036561,-1.6598385407,-2.0776338
 701\O,0.0004193225,2.3328890226,0.\H,-0.0000617969,-2.7280164894,0.\\V
 ersion=EM64L-G09RevE.01\State=1-A'\HF=-323.6449177\RMSD=4.139e-09\RMSF
 =5.952e-05\ZeroPoint=0.0932948\Thermal=0.0987043\Dipole=-0.0004031,-2.
 7582806,0.\DipoleDeriv=-0.0636616,0.0002647,0.0000285,-0.0000635,0.681
 6981,0.2441237,0.0001262,0.3872989,0.4074527,-0.1929055,0.0002191,-0.0
 000837,0.0000502,-0.5444566,0.0576086,0.000081,0.4814598,-0.1308613,0.
 2328253,0.0001758,0.,-0.0000548,1.8398788,0.,0.,0.,0.5342357,-0.192905
 5,0.0002191,0.0000837,0.0000502,-0.5444566,-0.0576086,-0.000081,-0.481
 4598,-0.1308613,-0.0636616,0.0002647,-0.0000285,-0.0000635,0.6816981,-
 0.2441237,-0.0001262,-0.3872989,0.4074527,-0.1813491,-0.0006184,0.,-0.
 0000617,-0.8783445,0.,0.,0.,-0.6907002,0.1474035,0.000053,-0.0000027,-
 0.0000006,0.0147652,0.0685435,-0.0000508,0.0592627,-0.0068447,0.144087
 3,0.,-0.0000344,-0.0000039,0.0516517,-0.0376963,-0.0000257,-0.0253513,
 -0.0251476,0.1440873,0.,0.0000344,-0.0000039,0.0516517,0.0376963,0.000
 0257,0.0253513,-0.0251476,0.1474035,0.000053,0.0000027,-0.0000006,0.01
 47652,-0.0685435,0.0000508,-0.0592627,-0.0068447,-0.4197229,-0.000813,
 0.,0.0001293,-1.6409209,0.,0.,0.,-0.465455,0.2983992,0.0001819,0.,0.00
 00227,0.2720697,0.,0.,0.,0.1327212\Polar=38.4440896,0.0038199,91.68869
 27,0.,0.,70.1675998\PG=CS [SG(C1H1N1O1),X(C4H4)]\NImag=0\\0.13177437,-
 0.00006234,0.81181534,0.00008056,-0.05785793,0.68464831,-0.05323492,0.
 00002465,-0.00003469,0.10736028,0.00003746,-0.44587170,0.01457934,0.00
 000606,0.77743829,-0.00003015,-0.01672314,-0.13329557,0.00014480,0.084
 25294,0.63755736,-0.00046760,-0.00002215,0.00000511,-0.07319035,0.0000
 5000,-0.00006251,0.19526763,0.00001368,-0.03198918,0.02588201,0.000042
 76,-0.10985254,0.03310672,0.00041250,0.86723175,0.00001571,0.03995819,
 0.04181064,-0.00008444,0.02085716,-0.20643313,0.,0.,0.52130827,-0.0010
 6642,0.00000690,0.00000657,0.00823033,-0.00000109,-0.00001214,-0.07319
 035,0.00004276,0.00008444,0.10736028,-0.00000414,-0.01105740,-0.020234
 92,-0.00000109,0.02826981,0.00903894,0.00005000,-0.10985254,-0.0208571
 6,0.00000606,0.77743829,-0.00000109,0.00396128,-0.00300813,0.00001214,
 -0.00903894,-0.02966144,0.00006251,-0.03310672,-0.20643313,-0.00014480
 ,-0.08425294,0.63755736,0.00582447,0.00000079,-0.00000464,-0.00106642,
 -0.00000414,0.00000109,-0.00046760,0.00001368,-0.00001571,-0.05323492,
 0.00003746,0.00003015,0.13177437,0.00000079,0.02227737,0.00755956,0.00
 000690,-0.01105740,-0.00396128,-0.00002215,-0.03198918,-0.03995819,0.0
 0002465,-0.44587170,0.01672314,-0.00006234,0.81181534,0.00000464,-0.00
 755956,-0.07033218,-0.00000657,0.02023492,-0.00300813,-0.00000511,-0.0
 2588201,0.04181064,0.00003469,-0.01457934,-0.13329557,-0.00008056,0.05
 785793,0.68464831,-0.04640525,0.00002336,-0.00001519,0.01022844,-0.000
 01923,0.00001001,-0.00969772,0.00001035,0.,0.01022844,-0.00001923,-0.0
 0001001,-0.04640525,0.00002336,0.00001519,0.06546163,-0.00000375,-0.17
 674111,-0.08901954,-0.00001137,-0.04161184,-0.03965720,0.00000763,0.01
 137786,0.,-0.00001137,-0.04161184,0.03965720,-0.00000375,-0.17674111,0
 .08901954,-0.00012921,0.87924709,-0.00003453,-0.05829403,-0.26771595,0
 .00000553,-0.05182824,0.00683952,0.,0.,-0.05307751,-0.00000553,0.05182
 824,0.00683952,0.00003453,0.05829403,-0.26771595,0.,0.,0.68091199,-0.0
 3670603,0.00002132,-0.00004283,0.00711784,0.00000394,-0.00000623,0.011
 10307,-0.00000296,0.00000310,-0.00106893,0.,0.00000050,0.00355385,-0.0
 0000358,0.00000008,0.00073347,0.00000684,-0.00000339,0.02425735,0.0000
 2322,-0.15469760,0.13718687,0.00001430,-0.01186428,0.02763630,-0.00000
 091,-0.00256548,-0.00519689,-0.00000025,0.00058089,0.00024960,-0.00000
 054,-0.00248569,-0.00191071,-0.00000213,0.01323639,-0.02040780,-0.0000
 3088,0.15726177,-0.00004500,0.12848737,-0.24553058,0.00000258,-0.00120
 997,0.00622008,-0.00000138,-0.00170797,0.00049886,-0.00000034,0.000488
 76,0.00092878,-0.00000202,-0.00612595,-0.00105279,-0.00000468,0.017439
 03,-0.02728707,0.00004859,-0.13885655,0.26592336,-0.00103265,0.0000042
 2,0.00000122,-0.03167297,-0.00003133,-0.00005882,0.00460119,-0.0000099
 5,-0.00001523,0.00342821,0.00000171,-0.00000419,-0.00011216,0.00000397
 ,-0.00000115,0.00900923,-0.00000117,0.00000228,-0.00543592,0.00000058,
 0.00000081,0.02376894,-0.00000643,-0.01016701,-0.02893562,-0.00002719,
 -0.12066423,-0.11885741,0.00000484,0.01219081,0.01511892,-0.00000008,-
 0.00195444,0.00297341,-0.00000006,-0.00054737,0.00085905,0.00000184,-0
 .00550234,0.00137170,-0.00000106,0.00085958,0.00014603,0.00002860,0.12
 457092,0.00000255,0.00241492,0.00320786,-0.00007134,-0.12152881,-0.279
 97305,-0.00000627,-0.01815237,-0.01817494,-0.00000337,0.00371183,-0.00
 371086,0.00000034,0.00153788,-0.00064101,-0.00000468,0.00152043,0.0033
 3584,0.00000303,-0.00052194,0.00074134,0.00007558,0.13050382,0.2918515
 3,-0.00011216,0.00000397,0.00000115,0.00342821,0.00000171,0.00000419,0
 .00460119,-0.00000995,0.00001523,-0.03167297,-0.00003133,0.00005882,-0
 .00103265,0.00000422,-0.00000122,0.00900923,-0.00000117,-0.00000228,-0
 .00069170,-0.00000022,0.00000031,-0.00102357,-0.00000091,0.00000123,0.
 02376894,-0.00000006,-0.00054737,-0.00085905,-0.00000008,-0.00195444,-
 0.00297341,0.00000484,0.01219081,-0.01511892,-0.00002719,-0.12066423,0
 .11885741,-0.00000643,-0.01016701,0.02893562,0.00000184,-0.00550234,-0
 .00137170,0.00000011,0.00009366,0.00009939,-0.00000091,0.00056218,-0.0
 0083868,0.00002860,0.12457092,-0.00000034,-0.00153788,-0.00064101,0.00
 000337,-0.00371183,-0.00371086,0.00000627,0.01815237,-0.01817494,0.000
 07134,0.12152881,-0.27997305,-0.00000255,-0.00241492,0.00320786,0.0000
 0468,-0.00152043,0.00333584,-0.00000054,0.00010756,0.00003356,-0.00000
 123,0.00083868,-0.00104027,-0.00007558,-0.13050382,0.29185153,0.003553
 85,-0.00000358,-0.00000008,-0.00106893,0.,-0.00000050,0.01110307,-0.00
 000296,-0.00000310,0.00711784,0.00000394,0.00000623,-0.03670603,0.0000
 2132,0.00004283,0.00073347,0.00000684,0.00000339,0.00111325,0.00000027
 ,0.00000020,-0.00069170,0.00000011,0.00000054,-0.00543592,-0.00000106,
 -0.00000303,0.02425735,-0.00000054,-0.00248569,0.00191071,-0.00000025,
 0.00058089,-0.00024960,-0.00000091,-0.00256548,0.00519689,0.00001430,-
 0.01186428,-0.02763630,0.00002322,-0.15469760,-0.13718687,-0.00000213,
 0.01323639,0.02040780,0.00000027,0.00048525,0.00072073,-0.00000022,0.0
 0009366,-0.00010756,0.00000058,0.00085958,0.00052194,-0.00003088,0.157
 26177,0.00000202,0.00612595,-0.00105279,0.00000034,-0.00048876,0.00092
 878,0.00000138,0.00170797,0.00049886,-0.00000258,0.00120997,0.00622008
 ,0.00004500,-0.12848737,-0.24553058,0.00000468,-0.01743903,-0.02728707
 ,-0.00000020,-0.00072073,-0.00106861,-0.00000031,-0.00009939,0.0000335
 6,-0.00000081,-0.00014603,0.00074134,-0.00004859,0.13885655,0.26592336
 ,0.00409947,0.00000965,0.00000187,0.02078866,-0.00004082,0.00001126,-0
 .06905035,-0.00050908,0.,0.02078866,-0.00004082,-0.00001126,0.00409947
 ,0.00000965,-0.00000187,0.00003892,-0.00000463,0.,-0.00221494,-0.00000
 242,0.00000036,-0.00264317,0.00000031,0.00000342,-0.00264317,0.0000003
 1,-0.00000342,-0.00221494,-0.00000242,-0.00000036,0.02928617,0.0000002
 8,0.01166430,0.00856602,-0.00005481,-0.06614405,0.03179018,-0.00048362
 ,-0.61335986,0.,-0.00005481,-0.06614405,-0.03179018,0.00000028,0.01166
 430,-0.00856602,-0.00001057,-0.01016892,0.,0.00000715,-0.00214178,0.00
 030468,0.00000402,0.00097082,0.00107775,0.00000402,0.00097082,-0.00107
 775,0.00000715,-0.00214178,-0.00030468,0.00057983,0.73341938,-0.000004
 86,-0.00483955,-0.01439253,0.00002986,0.04927431,0.01059772,0.,0.,-0.1
 0179763,-0.00002986,-0.04927431,0.01059773,0.00000486,0.00483955,-0.01
 439253,0.,0.,0.01365115,-0.00000247,0.00198604,0.00020925,0.00000157,-
 0.00257214,0.00411384,-0.00000157,0.00257214,0.00411384,0.00000247,-0.
 00198604,0.00020925,0.,0.,0.08639028,-0.00622712,-0.00000679,0.0000009
 5,0.00307982,-0.00000256,-0.00000101,-0.00061220,-0.00000082,0.,0.0030
 7982,-0.00000256,0.00000101,-0.00622712,-0.00000679,-0.00000095,-0.002
 93458,0.00014510,0.,-0.00176131,-0.00000101,0.00000057,0.00180457,0.00
 000004,-0.00000103,0.00180457,0.00000004,0.00000103,-0.00176131,-0.000
 00101,-0.00000057,-0.00033477,0.00000109,0.,0.01008963,0.00000184,-0.0
 1219996,0.00122255,0.00000012,0.00273148,-0.00340304,-0.00000005,-0.00
 081696,0.,0.00000012,0.00273148,0.00340304,0.00000184,-0.01219996,-0.0
 0122255,0.00012175,-0.45921821,0.,-0.00000115,0.00123728,0.00021446,0.
 00000049,-0.00041260,0.00038272,0.00000049,-0.00041260,-0.00038272,-0.
 00000115,0.00123728,-0.00021446,0.00000044,0.00141082,0.,-0.00012472,0
 .47591197,0.00001049,-0.03413561,0.00630193,-0.00000157,-0.00139212,-0
 .00606129,0.,0.,-0.00183599,0.00000157,0.00139212,-0.00606129,-0.00001
 049,0.03413561,0.00630193,0.,0.,-0.07183032,0.00000035,0.00044824,0.00
 038382,-0.00000053,-0.00134704,0.00025617,0.00000053,0.00134704,0.0002
 5617,-0.00000035,-0.00044824,0.00038382,0.,0.,0.00069966,0.,0.,0.07120
 539\\0.00000729,-0.00003321,-0.00000215,0.00009276,0.00003989,0.000024
 02,-0.00028892,-0.00003407,0.,0.00009276,0.00003989,-0.00002402,0.0000
 0729,-0.00003321,0.00000215,0.00000044,-0.00003496,0.,-0.00001100,-0.0
 0001463,0.00001073,-0.00000144,0.00000831,-0.00000211,-0.00000144,0.00
 000831,0.00000211,-0.00001100,-0.00001463,-0.00001073,0.00010932,0.000
 06925,0.,0.00000396,-0.00000095,0.\\\@


 MICRO CREDO - NEVER TRUST A COMPUTER BIGGER
               BIGGER THAN YOU CAN LIFT.
 Job cpu time:       0 days  0 hours 34 minutes  6.7 seconds.
 File lengths (MBytes):  RWF=     65 Int=      0 D2E=      0 Chk=      7 Scr=      1
 Normal termination of Gaussian 09 at Fri Aug 27 21:19:45 2021.
