 Entering Gaussian System, Link 0=g09
 AtFile(1): pc-2.gbs
            -H     0
            S    4   1.00
                  0.754230D+02           0.240650D-02
                  0.113500D+02           0.184870D-01
                  0.259930D+01           0.897420D-01
                  0.735130D+00           0.281110D+00
            S    1   1.00
                  0.231670D+00           0.100000D+01
            S    1   1.00
                  0.741470D-01           0.100000D+01
            P    1   1.00
                  0.160000D+01           0.100000D+01
            P    1   1.00
                  0.450000D+00           0.100000D+01
            D    1   1.00
                  0.125000D+01           0.100000D+01
            ****
            -C     0
            S    7   1.00
                  0.785710D+04           0.568250D-03
                  0.117870D+04           0.439150D-02
                  0.268320D+03           0.225040D-01
                  0.759480D+02           0.866530D-01
                  0.245590D+02           0.244050D+00
                  0.862120D+01           0.441480D+00
                  0.312780D+01           0.353320D+00
            S    7   1.00
                  0.117870D+04          -0.594920D-06
                  0.268320D+03          -0.627480D-04
                  0.759480D+02          -0.757730D-03
                  0.245590D+02          -0.733080D-02
                  0.862120D+01          -0.389320D-01
                  0.312780D+01          -0.889080D-01
                  0.822020D+00           0.216890D+00
            S    1   1.00
                  0.330170D+00           0.100000D+01
            S    1   1.00
                  0.114630D+00           0.100000D+01
            P    4   1.00
                  0.337750D+02           0.602940D-02
                  0.767660D+01           0.432280D-01
                  0.223570D+01           0.163010D+00
                  0.764470D+00           0.365040D+00
            P    1   1.00
                  0.262320D+00           0.100000D+01
            P    1   1.00
                  0.846380D-01           0.100000D+01
            D    1   1.00
                  0.140000D+01           0.100000D+01
            D    1   1.00
                  0.450000D+00           0.100000D+01
            F    1   1.00
                  0.950000D+00           0.100000D+01
            ****
            -N     0
            S    7   1.00
                  0.111010D+05           0.545700D-03
                  0.166530D+04           0.421810D-02
                  0.379080D+03           0.216450D-01
                  0.107300D+03           0.837760D-01
                  0.347470D+02           0.238810D+00
                  0.122490D+02           0.439940D+00
                  0.447430D+01           0.363640D+00
            S    7   1.00
                  0.166530D+04          -0.150060D-05
                  0.379080D+03          -0.587530D-04
                  0.107300D+03          -0.774530D-03
                  0.347470D+02          -0.721610D-02
                  0.122490D+02          -0.393380D-01
                  0.447430D+01          -0.906110D-01
                  0.124040D+01           0.198820D+00
            S    1   1.00
                  0.487430D+00           0.100000D+01
            S    1   1.00
                  0.164840D+00           0.100000D+01
            P    4   1.00
                  0.479340D+02           0.617060D-02
                  0.109990D+02           0.442600D-01
                  0.324720D+01           0.168250D+00
                  0.111140D+01           0.368480D+00
            P    1   1.00
                  0.379880D+00           0.100000D+01
            P    1   1.00
                  0.120680D+00           0.100000D+01
            D    1   1.00
                  0.180000D+01           0.100000D+01
            D    1   1.00
                  0.550000D+00           0.100000D+01
            F    1   1.00
                  0.102000D+01           0.100000D+01
            ****
            -O     0
            S    7   1.00
                  0.147820D+05           0.535190D-03
                  0.221730D+04           0.413750D-02
                  0.504740D+03           0.212450D-01
                  0.142870D+03           0.824530D-01
                  0.463000D+02           0.236710D+00
                  0.163370D+02           0.440390D+00
                  0.598280D+01           0.364650D+00
            S    7   1.00
                  0.221730D+04          -0.192750D-05
                  0.504740D+03          -0.579640D-04
                  0.142870D+03          -0.794940D-03
                  0.463000D+02          -0.731250D-02
                  0.163370D+02          -0.405740D-01
                  0.598280D+01          -0.915940D-01
                  0.167180D+01           0.209400D+00
            S    1   1.00
                  0.646620D+00           0.100000D+01
            S    1   1.00
                  0.216690D+00           0.100000D+01
            P    4   1.00
                  0.604240D+02           0.689490D-02
                  0.139350D+02           0.490050D-01
                  0.415310D+01           0.182550D+00
                  0.141580D+01           0.376330D+00
            P    1   1.00
                  0.475490D+00           0.100000D+01
            P    1   1.00
                  0.145290D+00           0.100000D+01
            D    1   1.00
                  0.220000D+01           0.100000D+01
            D    1   1.00
                  0.650000D+00           0.100000D+01
            F    1   1.00
                  0.110000D+01           0.100000D+01
            ****
 Initial command:
 /public3/home/sc51754/softwares/g09e01/l1.exe "./Gau-35541.inp" -scrdir="./"
 Entering Link 1 = /public3/home/sc51754/softwares/g09e01/l1.exe PID=     35542.
  
 Copyright (c) 1988,1990,1992,1993,1995,1998,2003,2009,2015,
            Gaussian, Inc.  All Rights Reserved.
  
 This is part of the Gaussian(R) 09 program.  It is based on
 the Gaussian(R) 03 system (copyright 2003, Gaussian, Inc.),
 the Gaussian(R) 98 system (copyright 1998, Gaussian, Inc.),
 the Gaussian(R) 94 system (copyright 1995, Gaussian, Inc.),
 the Gaussian 92(TM) system (copyright 1992, Gaussian, Inc.),
 the Gaussian 90(TM) system (copyright 1990, Gaussian, Inc.),
 the Gaussian 88(TM) system (copyright 1988, Gaussian, Inc.),
 the Gaussian 86(TM) system (copyright 1986, Carnegie Mellon
 University), and the Gaussian 82(TM) system (copyright 1983,
 Carnegie Mellon University). Gaussian is a federally registered
 trademark of Gaussian, Inc.
  
 This software contains proprietary and confidential information,
 including trade secrets, belonging to Gaussian, Inc.
  
 This software is provided under written license and may be
 used, copied, transmitted, or stored only in accord with that
 written license.
  
 The following legend is applicable only to US Government
 contracts under FAR:
  
                    RESTRICTED RIGHTS LEGEND
  
 Use, reproduction and disclosure by the US Government is
 subject to restrictions as set forth in subparagraphs (a)
 and (c) of the Commercial Computer Software - Restricted
 Rights clause in FAR 52.227-19.
  
 Gaussian, Inc.
 340 Quinnipiac St., Bldg. 40, Wallingford CT 06492
  
  
 ---------------------------------------------------------------
 Warning -- This program may not be used in any manner that
 competes with the business of Gaussian, Inc. or will provide
 assistance to any competitor of Gaussian, Inc.  The licensee
 of this program is prohibited from giving any competitor of
 Gaussian, Inc. access to this program.  By using this program,
 the user acknowledges that Gaussian, Inc. is engaged in the
 business of creating and licensing software in the field of
 computational chemistry and represents and warrants to the
 licensee that it is not a competitor of Gaussian, Inc. and that
 it will not use this program in any manner prohibited above.
 ---------------------------------------------------------------
  

 Cite this work as:
 Gaussian 09, Revision E.01,
 M. J. Frisch, G. W. Trucks, H. B. Schlegel, G. E. Scuseria, 
 M. A. Robb, J. R. Cheeseman, G. Scalmani, V. Barone, B. Mennucci, 
 G. A. Petersson, H. Nakatsuji, M. Caricato, X. Li, H. P. Hratchian, 
 A. F. Izmaylov, J. Bloino, G. Zheng, J. L. Sonnenberg, M. Hada, 
 M. Ehara, K. Toyota, R. Fukuda, J. Hasegawa, M. Ishida, T. Nakajima, 
 Y. Honda, O. Kitao, H. Nakai, T. Vreven, J. A. Montgomery, Jr., 
 J. E. Peralta, F. Ogliaro, M. Bearpark, J. J. Heyd, E. Brothers, 
 K. N. Kudin, V. N. Staroverov, T. Keith, R. Kobayashi, J. Normand, 
 K. Raghavachari, A. Rendell, J. C. Burant, S. S. Iyengar, J. Tomasi, 
 M. Cossi, N. Rega, J. M. Millam, M. Klene, J. E. Knox, J. B. Cross, 
 V. Bakken, C. Adamo, J. Jaramillo, R. Gomperts, R. E. Stratmann, 
 O. Yazyev, A. J. Austin, R. Cammi, C. Pomelli, J. W. Ochterski, 
 R. L. Martin, K. Morokuma, V. G. Zakrzewski, G. A. Voth, 
 P. Salvador, J. J. Dannenberg, S. Dapprich, A. D. Daniels, 
 O. Farkas, J. B. Foresman, J. V. Ortiz, J. Cioslowski, 
 and D. J. Fox, Gaussian, Inc., Wallingford CT, 2013.
 
 ******************************************
 Gaussian 09:  EM64L-G09RevE.01 30-Nov-2015
                27-Aug-2021 
 ******************************************
 %nprocshared=64
 Will use up to   64 processors via shared memory.
 %mem=128GB
 %chk=4PY_M06L_PC2_OPT_FREQ.chk
 --------------------
 #p opt freq M06L/gen
 --------------------
 1/14=-1,18=20,19=15,26=3,38=1/1,3;
 2/9=110,12=2,17=6,18=5,40=1/2;
 3/5=7,11=2,16=1,25=1,30=1,71=1,74=-53/1,2,3;
 4//1;
 5/5=2,38=5/2;
 6/7=2,8=2,9=2,10=2,28=1/1;
 7//1,2,3,16;
 1/14=-1,18=20,19=15,26=3/3(2);
 2/9=110/2;
 99//99;
 2/9=110/2;
 3/5=7,6=1,11=2,16=1,25=1,30=1,71=1,74=-53,82=7/1,2,3;
 4/5=5,16=3,69=1/1;
 5/5=2,38=5/2;
 7//1,2,3,16;
 1/14=-1,18=20,19=15,26=3/3(-5);
 2/9=110/2;
 6/7=2,8=2,9=2,10=2,19=2,28=1/1;
 99/9=1/99;
 Leave Link    1 at Fri Aug 27 21:16:42 2021, MaxMem= 17179869184 cpu:         6.9
 (Enter /public3/home/sc51754/softwares/g09e01/l101.exe)
 ---------------------
 4PY_M06L_PC2_OPT_FREQ
 ---------------------
 Symbolic Z-matrix:
 Charge =  0 Multiplicity = 1
 C                    -0.00018  -1.04887   1.19382 
 C                    -0.00018   0.30655   1.22857 
 C                     0.00022   1.11152   0. 
 C                    -0.00018   0.30655  -1.22857 
 C                    -0.00018  -1.04887  -1.19382 
 N                     0.00002  -1.72968   0. 
 H                    -0.00063  -1.66693   2.08522 
 H                    -0.00059   0.82774   2.17893 
 H                    -0.00059   0.82774  -2.17893 
 H                    -0.00063  -1.66693  -2.08522 
 O                     0.0006    2.34525   0. 
 H                     0.00063  -2.73716   0. 
 
 NAtoms=     12 NQM=       12 NQMF=       0 NMMI=      0 NMMIF=      0
                NMic=       0 NMicF=      0.
                    Isotopes and Nuclear Properties:
 (Nuclear quadrupole moments (NQMom) in fm**2, nuclear magnetic moments (NMagM)
  in nuclear magnetons)

  Atom         1           2           3           4           5           6           7           8           9          10
 IAtWgt=          12          12          12          12          12          14           1           1           1           1
 AtmWgt=  12.0000000  12.0000000  12.0000000  12.0000000  12.0000000  14.0030740   1.0078250   1.0078250   1.0078250   1.0078250
 NucSpn=           0           0           0           0           0           2           1           1           1           1
 AtZEff=   0.0000000   0.0000000   0.0000000   0.0000000   0.0000000   0.0000000   0.0000000   0.0000000   0.0000000   0.0000000
 NQMom=    0.0000000   0.0000000   0.0000000   0.0000000   0.0000000   2.0440000   0.0000000   0.0000000   0.0000000   0.0000000
 NMagM=    0.0000000   0.0000000   0.0000000   0.0000000   0.0000000   0.4037610   2.7928460   2.7928460   2.7928460   2.7928460
 AtZNuc=   6.0000000   6.0000000   6.0000000   6.0000000   6.0000000   7.0000000   1.0000000   1.0000000   1.0000000   1.0000000

  Atom        11          12
 IAtWgt=          16           1
 AtmWgt=  15.9949146   1.0078250
 NucSpn=           0           1
 AtZEff=   0.0000000   0.0000000
 NQMom=    0.0000000   0.0000000
 NMagM=    0.0000000   2.7928460
 AtZNuc=   8.0000000   1.0000000
 Leave Link  101 at Fri Aug 27 21:16:42 2021, MaxMem= 17179869184 cpu:         6.0
 (Enter /public3/home/sc51754/softwares/g09e01/l103.exe)

 GradGradGradGradGradGradGradGradGradGradGradGradGradGradGradGradGradGrad
 Berny optimization.
 Initialization pass.
                           ----------------------------
                           !    Initial Parameters    !
                           ! (Angstroms and Degrees)  !
 --------------------------                            --------------------------
 ! Name  Definition              Value          Derivative Info.                !
 --------------------------------------------------------------------------------
 ! R1    R(1,2)                  1.3559         estimate D2E/DX2                !
 ! R2    R(1,6)                  1.3743         estimate D2E/DX2                !
 ! R3    R(1,7)                  1.0847         estimate D2E/DX2                !
 ! R4    R(2,3)                  1.4688         estimate D2E/DX2                !
 ! R5    R(2,8)                  1.0839         estimate D2E/DX2                !
 ! R6    R(3,4)                  1.4688         estimate D2E/DX2                !
 ! R7    R(3,11)                 1.2337         estimate D2E/DX2                !
 ! R8    R(4,5)                  1.3559         estimate D2E/DX2                !
 ! R9    R(4,9)                  1.0839         estimate D2E/DX2                !
 ! R10   R(5,6)                  1.3743         estimate D2E/DX2                !
 ! R11   R(5,10)                 1.0847         estimate D2E/DX2                !
 ! R12   R(6,12)                 1.0075         estimate D2E/DX2                !
 ! A1    A(2,1,6)              121.1639         estimate D2E/DX2                !
 ! A2    A(2,1,7)              123.267          estimate D2E/DX2                !
 ! A3    A(6,1,7)              115.5691         estimate D2E/DX2                !
 ! A4    A(1,2,3)              121.7645         estimate D2E/DX2                !
 ! A5    A(1,2,8)              120.2096         estimate D2E/DX2                !
 ! A6    A(3,2,8)              118.0259         estimate D2E/DX2                !
 ! A7    A(2,3,4)              113.5338         estimate D2E/DX2                !
 ! A8    A(2,3,11)             123.2331         estimate D2E/DX2                !
 ! A9    A(4,3,11)             123.2331         estimate D2E/DX2                !
 ! A10   A(3,4,5)              121.7645         estimate D2E/DX2                !
 ! A11   A(3,4,9)              118.0259         estimate D2E/DX2                !
 ! A12   A(5,4,9)              120.2096         estimate D2E/DX2                !
 ! A13   A(4,5,6)              121.1639         estimate D2E/DX2                !
 ! A14   A(4,5,10)             123.267          estimate D2E/DX2                !
 ! A15   A(6,5,10)             115.5691         estimate D2E/DX2                !
 ! A16   A(1,6,5)              120.6094         estimate D2E/DX2                !
 ! A17   A(1,6,12)             119.6953         estimate D2E/DX2                !
 ! A18   A(5,6,12)             119.6953         estimate D2E/DX2                !
 ! D1    D(6,1,2,3)             -0.0087         estimate D2E/DX2                !
 ! D2    D(6,1,2,8)            179.9852         estimate D2E/DX2                !
 ! D3    D(7,1,2,3)           -179.9904         estimate D2E/DX2                !
 ! D4    D(7,1,2,8)              0.0035         estimate D2E/DX2                !
 ! D5    D(2,1,6,5)             -0.0199         estimate D2E/DX2                !
 ! D6    D(2,1,6,12)           179.9596         estimate D2E/DX2                !
 ! D7    D(7,1,6,5)            179.9631         estimate D2E/DX2                !
 ! D8    D(7,1,6,12)            -0.0574         estimate D2E/DX2                !
 ! D9    D(1,2,3,4)              0.0339         estimate D2E/DX2                !
 ! D10   D(1,2,3,11)          -179.9797         estimate D2E/DX2                !
 ! D11   D(8,2,3,4)           -179.9602         estimate D2E/DX2                !
 ! D12   D(8,2,3,11)             0.0262         estimate D2E/DX2                !
 ! D13   D(2,3,4,5)             -0.0339         estimate D2E/DX2                !
 ! D14   D(2,3,4,9)            179.9602         estimate D2E/DX2                !
 ! D15   D(11,3,4,5)           179.9797         estimate D2E/DX2                !
 ! D16   D(11,3,4,9)            -0.0262         estimate D2E/DX2                !
 ! D17   D(3,4,5,6)              0.0087         estimate D2E/DX2                !
 ! D18   D(3,4,5,10)           179.9904         estimate D2E/DX2                !
 ! D19   D(9,4,5,6)           -179.9852         estimate D2E/DX2                !
 ! D20   D(9,4,5,10)            -0.0035         estimate D2E/DX2                !
 ! D21   D(4,5,6,1)              0.0199         estimate D2E/DX2                !
 ! D22   D(4,5,6,12)          -179.9596         estimate D2E/DX2                !
 ! D23   D(10,5,6,1)          -179.9631         estimate D2E/DX2                !
 ! D24   D(10,5,6,12)            0.0574         estimate D2E/DX2                !
 --------------------------------------------------------------------------------
 Trust Radius=3.00D-01 FncErr=1.00D-07 GrdErr=1.00D-06
 Number of steps in this run=     64 maximum allowed number of steps=    100.
 GradGradGradGradGradGradGradGradGradGradGradGradGradGradGradGradGradGrad

 Leave Link  103 at Fri Aug 27 21:16:42 2021, MaxMem= 17179869184 cpu:         0.1
 (Enter /public3/home/sc51754/softwares/g09e01/l202.exe)
                          Input orientation:                          
 ---------------------------------------------------------------------
 Center     Atomic      Atomic             Coordinates (Angstroms)
 Number     Number       Type             X           Y           Z
 ---------------------------------------------------------------------
      1          6           0       -0.000184   -1.048866    1.193818
      2          6           0       -0.000184    0.306549    1.228568
      3          6           0        0.000221    1.111516    0.000000
      4          6           0       -0.000184    0.306549   -1.228568
      5          6           0       -0.000184   -1.048866   -1.193818
      6          7           0        0.000018   -1.729678    0.000000
      7          1           0       -0.000630   -1.666925    2.085223
      8          1           0       -0.000587    0.827738    2.178925
      9          1           0       -0.000587    0.827738   -2.178925
     10          1           0       -0.000630   -1.666925   -2.085223
     11          8           0        0.000597    2.345248    0.000000
     12          1           0        0.000630   -2.737158    0.000000
 ---------------------------------------------------------------------
                    Distance matrix (angstroms):
                    1          2          3          4          5
     1  C    0.000000
     2  C    1.355860   0.000000
     3  C    2.468289   1.468792   0.000000
     4  C    2.775807   2.457136   1.468792   0.000000
     5  C    2.387636   2.775807   2.468289   1.355860   0.000000
     6  N    1.374302   2.378150   2.841194   2.378150   1.374302
     7  H    1.084712   2.151385   3.473887   3.856917   3.336781
     8  H    2.119452   1.083890   2.197327   3.447122   3.859668
     9  H    3.859668   3.447122   2.197327   1.083890   2.119452
    10  H    3.336781   3.856917   3.473887   2.151385   1.084712
    11  O    3.597946   2.380268   1.233732   2.380268   3.597946
    12  H    2.067736   3.282306   3.848674   3.282306   2.067736
                    6          7          8          9         10
     6  N    0.000000
     7  H    2.086167   0.000000
     8  H    3.359775   2.496422   0.000000
     9  H    3.359775   4.940273   4.357850   0.000000
    10  H    2.086167   4.170446   4.940273   2.496422   0.000000
    11  O    4.074926   4.521691   2.655288   2.655288   4.521691
    12  H    1.007480   2.343833   4.178062   4.178062   2.343833
                   11         12
    11  O    0.000000
    12  H    5.082406   0.000000
 Stoichiometry    C5H5NO
 Framework group  CS[SG(CHNO),X(C4H4)]
 Deg. of freedom    17
 Full point group                 CS      NOp   2
 Largest Abelian subgroup         CS      NOp   2
 Largest concise Abelian subgroup CS      NOp   2
                         Standard orientation:                         
 ---------------------------------------------------------------------
 Center     Atomic      Atomic             Coordinates (Angstroms)
 Number     Number       Type             X           Y           Z
 ---------------------------------------------------------------------
      1          6           0        0.000184    1.048866    1.193818
      2          6           0        0.000184   -0.306549    1.228568
      3          6           0       -0.000221   -1.111516   -0.000000
      4          6           0        0.000184   -0.306549   -1.228568
      5          6           0        0.000184    1.048866   -1.193818
      6          7           0       -0.000018    1.729678    0.000000
      7          1           0        0.000630    1.666925    2.085223
      8          1           0        0.000587   -0.827738    2.178925
      9          1           0        0.000587   -0.827738   -2.178925
     10          1           0        0.000630    1.666925   -2.085223
     11          8           0       -0.000597   -2.345248   -0.000000
     12          1           0       -0.000630    2.737158    0.000000
 ---------------------------------------------------------------------
 Rotational constants (GHZ):      5.6935111      2.6926956      1.8281082
 Leave Link  202 at Fri Aug 27 21:16:42 2021, MaxMem= 17179869184 cpu:         4.8
 (Enter /public3/home/sc51754/softwares/g09e01/l301.exe)
 General basis read from cards:  (5D, 7F)
 Centers:       7      8      9     10     12
 S 4 1.00
     Exponent=  7.5423000000D+01 Coefficients=  2.4065000000D-03
     Exponent=  1.1350000000D+01 Coefficients=  1.8487000000D-02
     Exponent=  2.5993000000D+00 Coefficients=  8.9742000000D-02
     Exponent=  7.3513000000D-01 Coefficients=  2.8111000000D-01
 S 1 1.00
     Exponent=  2.3167000000D-01 Coefficients=  1.0000000000D+00
 S 1 1.00
     Exponent=  7.4147000000D-02 Coefficients=  1.0000000000D+00
 P 1 1.00
     Exponent=  1.6000000000D+00 Coefficients=  1.0000000000D+00
 P 1 1.00
     Exponent=  4.5000000000D-01 Coefficients=  1.0000000000D+00
 D 1 1.00
     Exponent=  1.2500000000D+00 Coefficients=  1.0000000000D+00
 ****
 Centers:       1      2      3      4      5
 S 7 1.00
     Exponent=  7.8571000000D+03 Coefficients=  5.6825000000D-04
     Exponent=  1.1787000000D+03 Coefficients=  4.3915000000D-03
     Exponent=  2.6832000000D+02 Coefficients=  2.2504000000D-02
     Exponent=  7.5948000000D+01 Coefficients=  8.6653000000D-02
     Exponent=  2.4559000000D+01 Coefficients=  2.4405000000D-01
     Exponent=  8.6212000000D+00 Coefficients=  4.4148000000D-01
     Exponent=  3.1278000000D+00 Coefficients=  3.5332000000D-01
 S 7 1.00
     Exponent=  1.1787000000D+03 Coefficients= -5.9492000000D-07
     Exponent=  2.6832000000D+02 Coefficients= -6.2748000000D-05
     Exponent=  7.5948000000D+01 Coefficients= -7.5773000000D-04
     Exponent=  2.4559000000D+01 Coefficients= -7.3308000000D-03
     Exponent=  8.6212000000D+00 Coefficients= -3.8932000000D-02
     Exponent=  3.1278000000D+00 Coefficients= -8.8908000000D-02
     Exponent=  8.2202000000D-01 Coefficients=  2.1689000000D-01
 S 1 1.00
     Exponent=  3.3017000000D-01 Coefficients=  1.0000000000D+00
 S 1 1.00
     Exponent=  1.1463000000D-01 Coefficients=  1.0000000000D+00
 P 4 1.00
     Exponent=  3.3775000000D+01 Coefficients=  6.0294000000D-03
     Exponent=  7.6766000000D+00 Coefficients=  4.3228000000D-02
     Exponent=  2.2357000000D+00 Coefficients=  1.6301000000D-01
     Exponent=  7.6447000000D-01 Coefficients=  3.6504000000D-01
 P 1 1.00
     Exponent=  2.6232000000D-01 Coefficients=  1.0000000000D+00
 P 1 1.00
     Exponent=  8.4638000000D-02 Coefficients=  1.0000000000D+00
 D 1 1.00
     Exponent=  1.4000000000D+00 Coefficients=  1.0000000000D+00
 D 1 1.00
     Exponent=  4.5000000000D-01 Coefficients=  1.0000000000D+00
 F 1 1.00
     Exponent=  9.5000000000D-01 Coefficients=  1.0000000000D+00
 ****
 Centers:       6
 S 7 1.00
     Exponent=  1.1101000000D+04 Coefficients=  5.4570000000D-04
     Exponent=  1.6653000000D+03 Coefficients=  4.2181000000D-03
     Exponent=  3.7908000000D+02 Coefficients=  2.1645000000D-02
     Exponent=  1.0730000000D+02 Coefficients=  8.3776000000D-02
     Exponent=  3.4747000000D+01 Coefficients=  2.3881000000D-01
     Exponent=  1.2249000000D+01 Coefficients=  4.3994000000D-01
     Exponent=  4.4743000000D+00 Coefficients=  3.6364000000D-01
 S 7 1.00
     Exponent=  1.6653000000D+03 Coefficients= -1.5006000000D-06
     Exponent=  3.7908000000D+02 Coefficients= -5.8753000000D-05
     Exponent=  1.0730000000D+02 Coefficients= -7.7453000000D-04
     Exponent=  3.4747000000D+01 Coefficients= -7.2161000000D-03
     Exponent=  1.2249000000D+01 Coefficients= -3.9338000000D-02
     Exponent=  4.4743000000D+00 Coefficients= -9.0611000000D-02
     Exponent=  1.2404000000D+00 Coefficients=  1.9882000000D-01
 S 1 1.00
     Exponent=  4.8743000000D-01 Coefficients=  1.0000000000D+00
 S 1 1.00
     Exponent=  1.6484000000D-01 Coefficients=  1.0000000000D+00
 P 4 1.00
     Exponent=  4.7934000000D+01 Coefficients=  6.1706000000D-03
     Exponent=  1.0999000000D+01 Coefficients=  4.4260000000D-02
     Exponent=  3.2472000000D+00 Coefficients=  1.6825000000D-01
     Exponent=  1.1114000000D+00 Coefficients=  3.6848000000D-01
 P 1 1.00
     Exponent=  3.7988000000D-01 Coefficients=  1.0000000000D+00
 P 1 1.00
     Exponent=  1.2068000000D-01 Coefficients=  1.0000000000D+00
 D 1 1.00
     Exponent=  1.8000000000D+00 Coefficients=  1.0000000000D+00
 D 1 1.00
     Exponent=  5.5000000000D-01 Coefficients=  1.0000000000D+00
 F 1 1.00
     Exponent=  1.0200000000D+00 Coefficients=  1.0000000000D+00
 ****
 Centers:      11
 S 7 1.00
     Exponent=  1.4782000000D+04 Coefficients=  5.3519000000D-04
     Exponent=  2.2173000000D+03 Coefficients=  4.1375000000D-03
     Exponent=  5.0474000000D+02 Coefficients=  2.1245000000D-02
     Exponent=  1.4287000000D+02 Coefficients=  8.2453000000D-02
     Exponent=  4.6300000000D+01 Coefficients=  2.3671000000D-01
     Exponent=  1.6337000000D+01 Coefficients=  4.4039000000D-01
     Exponent=  5.9828000000D+00 Coefficients=  3.6465000000D-01
 S 7 1.00
     Exponent=  2.2173000000D+03 Coefficients= -1.9275000000D-06
     Exponent=  5.0474000000D+02 Coefficients= -5.7964000000D-05
     Exponent=  1.4287000000D+02 Coefficients= -7.9494000000D-04
     Exponent=  4.6300000000D+01 Coefficients= -7.3125000000D-03
     Exponent=  1.6337000000D+01 Coefficients= -4.0574000000D-02
     Exponent=  5.9828000000D+00 Coefficients= -9.1594000000D-02
     Exponent=  1.6718000000D+00 Coefficients=  2.0940000000D-01
 S 1 1.00
     Exponent=  6.4662000000D-01 Coefficients=  1.0000000000D+00
 S 1 1.00
     Exponent=  2.1669000000D-01 Coefficients=  1.0000000000D+00
 P 4 1.00
     Exponent=  6.0424000000D+01 Coefficients=  6.8949000000D-03
     Exponent=  1.3935000000D+01 Coefficients=  4.9005000000D-02
     Exponent=  4.1531000000D+00 Coefficients=  1.8255000000D-01
     Exponent=  1.4158000000D+00 Coefficients=  3.7633000000D-01
 P 1 1.00
     Exponent=  4.7549000000D-01 Coefficients=  1.0000000000D+00
 P 1 1.00
     Exponent=  1.4529000000D-01 Coefficients=  1.0000000000D+00
 D 1 1.00
     Exponent=  2.2000000000D+00 Coefficients=  1.0000000000D+00
 D 1 1.00
     Exponent=  6.5000000000D-01 Coefficients=  1.0000000000D+00
 F 1 1.00
     Exponent=  1.1000000000D+00 Coefficients=  1.0000000000D+00
 ****
 Ernie: Thresh=  0.10000D-02 Tol=  0.10000D-05 Strict=F.
 Ernie:  7 primitive shells out of 220 were deleted.
 There are   183 symmetry adapted cartesian basis functions of A'  symmetry.
 There are   137 symmetry adapted cartesian basis functions of A"  symmetry.
 There are   158 symmetry adapted basis functions of A'  symmetry.
 There are   122 symmetry adapted basis functions of A"  symmetry.
   280 basis functions,   475 primitive gaussians,   320 cartesian basis functions
    25 alpha electrons       25 beta electrons
       nuclear repulsion energy       273.2804388411 Hartrees.
 IExCor= 4134 DFT=T Ex+Corr=M06L ExCW=0 ScaHFX=  0.000000
 ScaDFX=  1.000000  1.000000  1.000000  1.000000 ScalE2=  1.000000  1.000000
 IRadAn=      0 IRanWt=     -1 IRanGd=            0 ICorTp=0 IEmpDi=  4
 NAtoms=   12 NActive=   12 NUniq=    8 SFac= 2.25D+00 NAtFMM=   60 NAOKFM=F Big=F
 Integral buffers will be    131072 words long.
 Raffenetti 2 integral format.
 Two-electron integral symmetry is turned on.
 Leave Link  301 at Fri Aug 27 21:16:43 2021, MaxMem= 17179869184 cpu:         1.4
 (Enter /public3/home/sc51754/softwares/g09e01/l302.exe)
 NPDir=0 NMtPBC=     1 NCelOv=     1 NCel=       1 NClECP=     1 NCelD=      1
         NCelK=      1 NCelE2=     1 NClLst=     1 CellRange=     0.0.
 One-electron integrals computed using PRISM.
 One-electron integral symmetry used in STVInt
 NBasis=   280 RedAO= T EigKep=  1.83D-04  NBF=   158   122
 NBsUse=   280 1.00D-06 EigRej= -1.00D+00 NBFU=   158   122
 Precomputing XC quadrature grid using
 IXCGrd= 4 IRadAn=           0 IRanWt=          -1 IRanGd=           0 AccXCQ= 0.00D+00.
 Generated NRdTot=       0 NPtTot=           0 NUsed=           0 NTot=          32
 NSgBfM=   320   320   320   320   320 MxSgAt=    12 MxSgA2=    12.
 Leave Link  302 at Fri Aug 27 21:16:44 2021, MaxMem= 17179869184 cpu:        58.1
 (Enter /public3/home/sc51754/softwares/g09e01/l303.exe)
 DipDrv:  MaxL=1.
 Leave Link  303 at Fri Aug 27 21:16:44 2021, MaxMem= 17179869184 cpu:        11.0
 (Enter /public3/home/sc51754/softwares/g09e01/l401.exe)
 ExpMin= 7.41D-02 ExpMax= 1.48D+04 ExpMxC= 5.05D+02 IAcc=2 IRadAn=         4 AccDes= 0.00D+00
 Harris functional with IExCor= 1009 and IRadAn=       4 diagonalized for initial guess.
 HarFok:  IExCor= 1009 AccDes= 0.00D+00 IRadAn=         4 IDoV= 1 UseB2=F ITyADJ=14
 ICtDFT=  3500011 ScaDFX=  1.000000  1.000000  1.000000  1.000000
 FoFCou: FMM=F IPFlag=           0 FMFlag=      100000 FMFlg1=           0
         NFxFlg=           0 DoJE=T BraDBF=F KetDBF=T FulRan=T
         wScrn=  0.000000 ICntrl=     500 IOpCl=  0 I1Cent=   200000004 NGrid=           0
         NMat0=    1 NMatS0=      1 NMatT0=    0 NMatD0=    1 NMtDS0=    0 NMtDT0=    0
 Petite list used in FoFCou.
 Harris En= -323.373742033016    
 JPrj=0 DoOrth=F DoCkMO=F.
 Initial guess orbital symmetries:
       Occupied  (A') (A') (A") (A') (A") (A') (A') (A') (A') (A')
                 (A") (A") (A') (A') (A") (A') (A') (A") (A') (A')
                 (A") (A') (A") (A") (A')
       Virtual   (A') (A") (A') (A') (A") (A') (A') (A") (A') (A')
                 (A") (A') (A') (A") (A") (A") (A') (A') (A") (A')
                 (A") (A') (A") (A') (A') (A') (A") (A') (A") (A')
                 (A') (A") (A') (A') (A') (A") (A') (A") (A") (A')
                 (A") (A') (A') (A') (A") (A") (A') (A") (A") (A')
                 (A') (A") (A") (A') (A') (A') (A') (A") (A') (A')
                 (A') (A") (A') (A') (A") (A") (A') (A') (A") (A')
                 (A") (A") (A") (A') (A") (A') (A') (A") (A') (A")
                 (A') (A') (A") (A") (A') (A') (A') (A') (A") (A')
                 (A") (A") (A') (A") (A") (A') (A') (A") (A') (A')
                 (A") (A') (A") (A") (A') (A") (A') (A') (A") (A')
                 (A') (A") (A') (A") (A") (A') (A') (A') (A") (A")
                 (A") (A') (A') (A") (A') (A") (A') (A") (A") (A')
                 (A') (A") (A') (A") (A') (A') (A') (A") (A') (A')
                 (A") (A") (A") (A') (A") (A') (A') (A') (A') (A")
                 (A') (A") (A') (A') (A") (A") (A') (A") (A") (A')
                 (A') (A") (A') (A") (A') (A') (A") (A") (A") (A")
                 (A') (A') (A") (A') (A') (A") (A") (A') (A') (A')
                 (A") (A') (A") (A') (A") (A') (A') (A") (A') (A")
                 (A") (A") (A') (A') (A") (A') (A") (A') (A") (A')
                 (A') (A') (A') (A") (A") (A") (A") (A') (A') (A')
                 (A') (A') (A") (A") (A") (A') (A") (A') (A") (A')
                 (A') (A") (A") (A') (A") (A") (A') (A") (A') (A")
                 (A') (A') (A") (A') (A') (A') (A") (A") (A") (A')
                 (A') (A') (A") (A') (A") (A') (A') (A") (A') (A')
                 (A") (A') (A") (A') (A')
 The electronic state of the initial guess is 1-A'.
 Leave Link  401 at Fri Aug 27 21:16:45 2021, MaxMem= 17179869184 cpu:        52.6
 (Enter /public3/home/sc51754/softwares/g09e01/l502.exe)
 Closed shell SCF:
 Using DIIS extrapolation, IDIIS=  1040.
 Integral symmetry usage will be decided dynamically.
 Keep J ints in memory in symmetry-blocked form, NReq=1161351758.
 IVT=      348938 IEndB=      348938 NGot= 17179869184 MDV= 16792355177
 LenX= 16792355177 LenY= 16792252336
 Requested convergence on RMS density matrix=1.00D-08 within 128 cycles.
 Requested convergence on MAX density matrix=1.00D-06.
 Requested convergence on             energy=1.00D-06.
 No special actions if energy rises.
 FoFCou: FMM=F IPFlag=           0 FMFlag=           0 FMFlg1=           0
         NFxFlg=           0 DoJE=F BraDBF=F KetDBF=F FulRan=T
         wScrn=  0.000000 ICntrl=     600 IOpCl=  0 I1Cent=           0 NGrid=           0
         NMat0=    1 NMatS0=  39340 NMatT0=    0 NMatD0=    1 NMtDS0=    0 NMtDT0=    0
 Petite list used in FoFCou.
 Integral accuracy reduced to 1.0D-05 until final iterations.

 Cycle   1  Pass 0  IDiag  1:
 E= -323.385602370419    
 DIIS: error= 3.06D-02 at cycle   1 NSaved=   1.
 NSaved= 1 IEnMin= 1 EnMin= -323.385602370419     IErMin= 1 ErrMin= 3.06D-02
 ErrMax= 3.06D-02  0.00D+00 EMaxC= 1.00D-01 BMatC= 2.25D-01 BMatP= 2.25D-01
 IDIUse=3 WtCom= 6.94D-01 WtEn= 3.06D-01
 Coeff-Com:  0.100D+01
 Coeff-En:   0.100D+01
 Coeff:      0.100D+01
 Gap=    -0.030 Goal=   None    Shift=    0.000
 GapD=   -0.030 DampG=0.250 DampE=0.500 DampFc=0.2500 IDamp=-1.
 Damping current iteration by 2.50D-01
 RMSDP=2.99D-02 MaxDP=3.34D+00              OVMax= 9.97D-01

 Cycle   2  Pass 0  IDiag  1:
 E= -323.300366219001     Delta-E=        0.085236151418 Rises=F Damp=T
 DIIS: error= 1.47D-02 at cycle   2 NSaved=   2.
 NSaved= 2 IEnMin= 1 EnMin= -323.385602370419     IErMin= 2 ErrMin= 1.47D-02
 ErrMax= 1.47D-02  0.00D+00 EMaxC= 1.00D-01 BMatC= 6.96D-02 BMatP= 2.25D-01
 IDIUse=3 WtCom= 8.53D-01 WtEn= 1.47D-01
 Coeff-Com:  0.154D+00 0.846D+00
 Coeff-En:   0.667D+00 0.333D+00
 Coeff:      0.229D+00 0.771D+00
 Gap=     0.006 Goal=   None    Shift=    0.000
 RMSDP=7.51D-03 MaxDP=8.29D-01 DE= 8.52D-02 OVMax= 7.10D-01

 Cycle   3  Pass 0  IDiag  1:
 E= -323.354309142269     Delta-E=       -0.053942923268 Rises=F Damp=F
 DIIS: error= 3.54D-02 at cycle   3 NSaved=   3.
 NSaved= 3 IEnMin= 1 EnMin= -323.385602370419     IErMin= 2 ErrMin= 1.47D-02
 ErrMax= 3.54D-02  0.00D+00 EMaxC= 1.00D-01 BMatC= 1.98D-01 BMatP= 6.96D-02
 IDIUse=2 WtCom= 0.00D+00 WtEn= 1.00D+00
 EnCoef did     3 forward-backward iterations
 Coeff-En:   0.243D+00 0.342D+00 0.415D+00
 Coeff:      0.243D+00 0.342D+00 0.415D+00
 Gap=     0.132 Goal=   None    Shift=    0.000
 RMSDP=3.18D-03 MaxDP=1.27D-01 DE=-5.39D-02 OVMax= 5.49D-01

 Cycle   4  Pass 0  IDiag  1:
 E= -323.320570676679     Delta-E=        0.033738465591 Rises=F Damp=F
 DIIS: error= 3.96D-02 at cycle   4 NSaved=   4.
 NSaved= 4 IEnMin= 1 EnMin= -323.385602370419     IErMin= 2 ErrMin= 1.47D-02
 ErrMax= 3.96D-02  0.00D+00 EMaxC= 1.00D-01 BMatC= 2.61D-01 BMatP= 6.96D-02
 IDIUse=2 WtCom= 0.00D+00 WtEn= 1.00D+00
 EnCoef did     5 forward-backward iterations
 Coeff-En:   0.129D+00 0.000D+00 0.427D+00 0.444D+00
 Coeff:      0.129D+00 0.000D+00 0.427D+00 0.444D+00
 Gap=     0.139 Goal=   None    Shift=    0.000
 RMSDP=2.12D-03 MaxDP=7.83D-02 DE= 3.37D-02 OVMax= 3.12D-01

 Cycle   5  Pass 0  IDiag  1:
 E= -323.570640564449     Delta-E=       -0.250069887771 Rises=F Damp=F
 DIIS: error= 5.67D-03 at cycle   5 NSaved=   5.
 NSaved= 5 IEnMin= 5 EnMin= -323.570640564449     IErMin= 5 ErrMin= 5.67D-03
 ErrMax= 5.67D-03  0.00D+00 EMaxC= 1.00D-01 BMatC= 1.21D-02 BMatP= 6.96D-02
 IDIUse=3 WtCom= 9.43D-01 WtEn= 5.67D-02
 Coeff-Com: -0.637D-01 0.148D+00 0.200D+00 0.131D+00 0.585D+00
 Coeff-En:   0.000D+00 0.000D+00 0.000D+00 0.000D+00 0.100D+01
 Coeff:     -0.601D-01 0.140D+00 0.189D+00 0.123D+00 0.608D+00
 Gap=     0.152 Goal=   None    Shift=    0.000
 RMSDP=3.64D-04 MaxDP=2.26D-02 DE=-2.50D-01 OVMax= 3.69D-02

 Cycle   6  Pass 0  IDiag  1:
 E= -323.577699637499     Delta-E=       -0.007059073050 Rises=F Damp=F
 DIIS: error= 3.49D-03 at cycle   6 NSaved=   6.
 NSaved= 6 IEnMin= 6 EnMin= -323.577699637499     IErMin= 6 ErrMin= 3.49D-03
 ErrMax= 3.49D-03  0.00D+00 EMaxC= 1.00D-01 BMatC= 3.22D-03 BMatP= 1.21D-02
 IDIUse=3 WtCom= 9.65D-01 WtEn= 3.49D-02
 Coeff-Com: -0.101D+00 0.114D+00 0.315D-01 0.417D-02 0.363D+00 0.588D+00
 Coeff-En:   0.000D+00 0.000D+00 0.000D+00 0.000D+00 0.159D+00 0.841D+00
 Coeff:     -0.972D-01 0.110D+00 0.304D-01 0.403D-02 0.355D+00 0.597D+00
 Gap=     0.151 Goal=   None    Shift=    0.000
 RMSDP=1.45D-04 MaxDP=6.44D-03 DE=-7.06D-03 OVMax= 1.72D-02

 Cycle   7  Pass 0  IDiag  1:
 E= -323.579736960982     Delta-E=       -0.002037323483 Rises=F Damp=F
 DIIS: error= 2.84D-03 at cycle   7 NSaved=   7.
 NSaved= 7 IEnMin= 7 EnMin= -323.579736960982     IErMin= 7 ErrMin= 2.84D-03
 ErrMax= 2.84D-03  0.00D+00 EMaxC= 1.00D-01 BMatC= 1.07D-03 BMatP= 3.22D-03
 IDIUse=3 WtCom= 9.72D-01 WtEn= 2.84D-02
 Coeff-Com: -0.678D-01 0.796D-01 0.189D-02 0.558D-02 0.173D+00 0.306D+00
 Coeff-Com:  0.501D+00
 Coeff-En:   0.000D+00 0.000D+00 0.000D+00 0.000D+00 0.000D+00 0.000D+00
 Coeff-En:   0.100D+01
 Coeff:     -0.659D-01 0.773D-01 0.184D-02 0.543D-02 0.168D+00 0.297D+00
 Coeff:      0.516D+00
 Gap=     0.148 Goal=   None    Shift=    0.000
 RMSDP=7.39D-05 MaxDP=2.53D-03 DE=-2.04D-03 OVMax= 1.30D-02

 Cycle   8  Pass 0  IDiag  1:
 E= -323.580700293908     Delta-E=       -0.000963332926 Rises=F Damp=F
 DIIS: error= 1.82D-03 at cycle   8 NSaved=   8.
 NSaved= 8 IEnMin= 8 EnMin= -323.580700293908     IErMin= 8 ErrMin= 1.82D-03
 ErrMax= 1.82D-03  0.00D+00 EMaxC= 1.00D-01 BMatC= 4.42D-04 BMatP= 1.07D-03
 IDIUse=3 WtCom= 9.82D-01 WtEn= 1.82D-02
 Coeff-Com: -0.406D-01 0.498D-01-0.955D-02 0.722D-02 0.558D-01 0.844D-01
 Coeff-Com:  0.415D+00 0.438D+00
 Coeff-En:   0.000D+00 0.000D+00 0.000D+00 0.000D+00 0.000D+00 0.000D+00
 Coeff-En:   0.000D+00 0.100D+01
 Coeff:     -0.398D-01 0.489D-01-0.938D-02 0.709D-02 0.548D-01 0.829D-01
 Coeff:      0.407D+00 0.448D+00
 Gap=     0.147 Goal=   None    Shift=    0.000
 RMSDP=3.71D-05 MaxDP=1.60D-03 DE=-9.63D-04 OVMax= 4.34D-03

 Cycle   9  Pass 0  IDiag  1:
 E= -323.580981786192     Delta-E=       -0.000281492284 Rises=F Damp=F
 DIIS: error= 1.10D-03 at cycle   9 NSaved=   9.
 NSaved= 9 IEnMin= 9 EnMin= -323.580981786192     IErMin= 9 ErrMin= 1.10D-03
 ErrMax= 1.10D-03  0.00D+00 EMaxC= 1.00D-01 BMatC= 1.44D-04 BMatP= 4.42D-04
 IDIUse=3 WtCom= 9.89D-01 WtEn= 1.10D-02
 Coeff-Com: -0.297D-02 0.674D-02-0.513D-02 0.420D-02-0.290D-01-0.101D+00
 Coeff-Com: -0.118D+00-0.685D-01 0.131D+01
 Coeff-En:   0.000D+00 0.000D+00 0.000D+00 0.000D+00 0.000D+00 0.000D+00
 Coeff-En:   0.000D+00 0.000D+00 0.100D+01
 Coeff:     -0.294D-02 0.666D-02-0.507D-02 0.415D-02-0.286D-01-0.100D+00
 Coeff:     -0.117D+00-0.677D-01 0.131D+01
 Gap=     0.145 Goal=   None    Shift=    0.000
 RMSDP=4.78D-05 MaxDP=1.61D-03 DE=-2.81D-04 OVMax= 7.59D-03

 Cycle  10  Pass 0  IDiag  1:
 E= -323.581147594112     Delta-E=       -0.000165807920 Rises=F Damp=F
 DIIS: error= 1.18D-04 at cycle  10 NSaved=  10.
 NSaved=10 IEnMin=10 EnMin= -323.581147594112     IErMin=10 ErrMin= 1.18D-04
 ErrMax= 1.18D-04  0.00D+00 EMaxC= 1.00D-01 BMatC= 3.31D-06 BMatP= 1.44D-04
 IDIUse=3 WtCom= 9.99D-01 WtEn= 1.18D-03
 Coeff-Com:  0.153D-03 0.136D-02-0.138D-02 0.153D-02-0.132D-01-0.493D-01
 Coeff-Com: -0.974D-01-0.888D-01 0.642D+00 0.605D+00
 Coeff-En:   0.000D+00 0.000D+00 0.000D+00 0.000D+00 0.000D+00 0.000D+00
 Coeff-En:   0.000D+00 0.000D+00 0.000D+00 0.100D+01
 Coeff:      0.153D-03 0.136D-02-0.138D-02 0.153D-02-0.131D-01-0.493D-01
 Coeff:     -0.973D-01-0.887D-01 0.642D+00 0.605D+00
 Gap=     0.145 Goal=   None    Shift=    0.000
 RMSDP=5.68D-06 MaxDP=2.45D-04 DE=-1.66D-04 OVMax= 6.31D-04

 Initial convergence to 1.0D-05 achieved.  Increase integral accuracy.
 Cycle  11  Pass 1  IDiag  1:
 E= -323.581597989666     Delta-E=       -0.000450395554 Rises=F Damp=F
 DIIS: error= 3.52D-04 at cycle   1 NSaved=   1.
 NSaved= 1 IEnMin= 1 EnMin= -323.581597989666     IErMin= 1 ErrMin= 3.52D-04
 ErrMax= 3.52D-04  0.00D+00 EMaxC= 1.00D-01 BMatC= 5.93D-05 BMatP= 5.93D-05
 IDIUse=3 WtCom= 9.96D-01 WtEn= 3.52D-03
 Coeff-Com:  0.100D+01
 Coeff-En:   0.100D+01
 Coeff:      0.100D+01
 Gap=     0.144 Goal=   None    Shift=    0.000
 RMSDP=5.68D-06 MaxDP=2.45D-04 DE=-4.50D-04 OVMax= 1.26D-03

 Cycle  12  Pass 1  IDiag  1:
 E= -323.581621115467     Delta-E=       -0.000023125802 Rises=F Damp=F
 DIIS: error= 1.15D-04 at cycle   2 NSaved=   2.
 NSaved= 2 IEnMin= 2 EnMin= -323.581621115467     IErMin= 2 ErrMin= 1.15D-04
 ErrMax= 1.15D-04  0.00D+00 EMaxC= 1.00D-01 BMatC= 4.88D-06 BMatP= 5.93D-05
 IDIUse=3 WtCom= 9.99D-01 WtEn= 1.15D-03
 Coeff-Com:  0.144D+00 0.856D+00
 Coeff-En:   0.000D+00 0.100D+01
 Coeff:      0.144D+00 0.856D+00
 Gap=     0.145 Goal=   None    Shift=    0.000
 RMSDP=1.63D-05 MaxDP=4.53D-04 DE=-2.31D-05 OVMax= 2.25D-03

 Cycle  13  Pass 1  IDiag  1:
 E= -323.581614827934     Delta-E=        0.000006287533 Rises=F Damp=F
 DIIS: error= 1.95D-04 at cycle   3 NSaved=   3.
 NSaved= 3 IEnMin= 2 EnMin= -323.581621115467     IErMin= 2 ErrMin= 1.15D-04
 ErrMax= 1.95D-04  0.00D+00 EMaxC= 1.00D-01 BMatC= 9.41D-06 BMatP= 4.88D-06
 IDIUse=3 WtCom= 4.17D-01 WtEn= 5.83D-01
 Coeff-Com:  0.532D-01 0.578D+00 0.368D+00
 Coeff-En:   0.000D+00 0.681D+00 0.319D+00
 Coeff:      0.222D-01 0.638D+00 0.339D+00
 Gap=     0.144 Goal=   None    Shift=    0.000
 RMSDP=1.14D-05 MaxDP=3.89D-04 DE= 6.29D-06 OVMax= 1.99D-03

 Cycle  14  Pass 1  IDiag  1:
 E= -323.581624419811     Delta-E=       -0.000009591877 Rises=F Damp=F
 DIIS: error= 5.96D-05 at cycle   4 NSaved=   4.
 NSaved= 4 IEnMin= 4 EnMin= -323.581624419811     IErMin= 4 ErrMin= 5.96D-05
 ErrMax= 5.96D-05  0.00D+00 EMaxC= 1.00D-01 BMatC= 8.42D-07 BMatP= 4.88D-06
 IDIUse=1 WtCom= 1.00D+00 WtEn= 0.00D+00
 Coeff-Com:  0.149D-01 0.318D+00 0.220D+00 0.447D+00
 Coeff:      0.149D-01 0.318D+00 0.220D+00 0.447D+00
 Gap=     0.145 Goal=   None    Shift=    0.000
 RMSDP=3.04D-06 MaxDP=1.76D-04 DE=-9.59D-06 OVMax= 5.98D-04

 Cycle  15  Pass 1  IDiag  1:
 E= -323.581625049908     Delta-E=       -0.000000630097 Rises=F Damp=F
 DIIS: error= 2.77D-05 at cycle   5 NSaved=   5.
 NSaved= 5 IEnMin= 5 EnMin= -323.581625049908     IErMin= 5 ErrMin= 2.77D-05
 ErrMax= 2.77D-05  0.00D+00 EMaxC= 1.00D-01 BMatC= 1.76D-07 BMatP= 8.42D-07
 IDIUse=1 WtCom= 1.00D+00 WtEn= 0.00D+00
 Coeff-Com: -0.337D-02 0.674D-01 0.601D-01 0.317D+00 0.559D+00
 Coeff:     -0.337D-02 0.674D-01 0.601D-01 0.317D+00 0.559D+00
 Gap=     0.145 Goal=   None    Shift=    0.000
 RMSDP=1.11D-06 MaxDP=5.23D-05 DE=-6.30D-07 OVMax= 1.66D-04

 Cycle  16  Pass 1  IDiag  1:
 E= -323.581625184095     Delta-E=       -0.000000134187 Rises=F Damp=F
 DIIS: error= 7.52D-06 at cycle   6 NSaved=   6.
 NSaved= 6 IEnMin= 6 EnMin= -323.581625184095     IErMin= 6 ErrMin= 7.52D-06
 ErrMax= 7.52D-06  0.00D+00 EMaxC= 1.00D-01 BMatC= 1.64D-08 BMatP= 1.76D-07
 IDIUse=1 WtCom= 1.00D+00 WtEn= 0.00D+00
 Coeff-Com: -0.295D-02 0.243D-01 0.254D-01 0.179D+00 0.351D+00 0.423D+00
 Coeff:     -0.295D-02 0.243D-01 0.254D-01 0.179D+00 0.351D+00 0.423D+00
 Gap=     0.145 Goal=   None    Shift=    0.000
 RMSDP=4.27D-07 MaxDP=1.74D-05 DE=-1.34D-07 OVMax= 5.11D-05

 Cycle  17  Pass 1  IDiag  1:
 E= -323.581625196426     Delta-E=       -0.000000012331 Rises=F Damp=F
 DIIS: error= 3.04D-06 at cycle   7 NSaved=   7.
 NSaved= 7 IEnMin= 7 EnMin= -323.581625196426     IErMin= 7 ErrMin= 3.04D-06
 ErrMax= 3.04D-06  0.00D+00 EMaxC= 1.00D-01 BMatC= 1.91D-09 BMatP= 1.64D-08
 IDIUse=1 WtCom= 1.00D+00 WtEn= 0.00D+00
 Coeff-Com: -0.132D-02 0.324D-02 0.586D-02 0.571D-01 0.123D+00 0.269D+00
 Coeff-Com:  0.542D+00
 Coeff:     -0.132D-02 0.324D-02 0.586D-02 0.571D-01 0.123D+00 0.269D+00
 Coeff:      0.542D+00
 Gap=     0.145 Goal=   None    Shift=    0.000
 RMSDP=1.28D-07 MaxDP=4.54D-06 DE=-1.23D-08 OVMax= 1.75D-05

 Cycle  18  Pass 1  IDiag  1:
 E= -323.581625197846     Delta-E=       -0.000000001420 Rises=F Damp=F
 DIIS: error= 1.09D-06 at cycle   8 NSaved=   8.
 NSaved= 8 IEnMin= 8 EnMin= -323.581625197846     IErMin= 8 ErrMin= 1.09D-06
 ErrMax= 1.09D-06  0.00D+00 EMaxC= 1.00D-01 BMatC= 2.66D-10 BMatP= 1.91D-09
 IDIUse=1 WtCom= 1.00D+00 WtEn= 0.00D+00
 Coeff-Com: -0.337D-03-0.183D-02-0.307D-04 0.542D-02 0.182D-01 0.913D-01
 Coeff-Com:  0.333D+00 0.554D+00
 Coeff:     -0.337D-03-0.183D-02-0.307D-04 0.542D-02 0.182D-01 0.913D-01
 Coeff:      0.333D+00 0.554D+00
 Gap=     0.145 Goal=   None    Shift=    0.000
 RMSDP=4.70D-08 MaxDP=1.53D-06 DE=-1.42D-09 OVMax= 4.55D-06

 Cycle  19  Pass 1  IDiag  1:
 E= -323.581625198097     Delta-E=       -0.000000000251 Rises=F Damp=F
 DIIS: error= 1.35D-07 at cycle   9 NSaved=   9.
 NSaved= 9 IEnMin= 9 EnMin= -323.581625198097     IErMin= 9 ErrMin= 1.35D-07
 ErrMax= 1.35D-07  0.00D+00 EMaxC= 1.00D-01 BMatC= 3.63D-12 BMatP= 2.66D-10
 IDIUse=1 WtCom= 1.00D+00 WtEn= 0.00D+00
 Coeff-Com:  0.219D-04-0.738D-03-0.322D-03-0.372D-02-0.561D-02 0.145D-02
 Coeff-Com:  0.437D-01 0.135D+00 0.830D+00
 Coeff:      0.219D-04-0.738D-03-0.322D-03-0.372D-02-0.561D-02 0.145D-02
 Coeff:      0.437D-01 0.135D+00 0.830D+00
 Gap=     0.145 Goal=   None    Shift=    0.000
 RMSDP=9.80D-09 MaxDP=3.49D-07 DE=-2.51D-10 OVMax= 1.08D-06

 SCF Done:  E(RM06L) =  -323.581625198     A.U. after   19 cycles
            NFock= 19  Conv=0.98D-08     -V/T= 2.0042
 KE= 3.222229830947D+02 PE=-1.301795932500D+03 EE= 3.827108853660D+02
 Leave Link  502 at Fri Aug 27 21:16:53 2021, MaxMem= 17179869184 cpu:       327.7
 (Enter /public3/home/sc51754/softwares/g09e01/l601.exe)
 Copying SCF densities to generalized density rwf, IOpCl= 0 IROHF=0.

 **********************************************************************

            Population analysis using the SCF density.

 **********************************************************************

 Orbital symmetries:
       Occupied  (A') (A') (A') (A") (A') (A") (A') (A') (A') (A')
                 (A") (A") (A') (A') (A") (A') (A") (A') (A') (A")
                 (A') (A') (A") (A') (A")
       Virtual   (A') (A") (A') (A") (A') (A") (A') (A') (A') (A')
                 (A") (A') (A') (A") (A") (A') (A") (A') (A") (A')
                 (A') (A") (A") (A') (A') (A') (A") (A') (A") (A')
                 (A') (A') (A") (A') (A') (A') (A") (A") (A") (A')
                 (A") (A') (A") (A') (A") (A') (A') (A") (A") (A')
                 (A') (A") (A') (A") (A') (A') (A') (A") (A') (A')
                 (A') (A") (A") (A') (A') (A") (A') (A") (A') (A")
                 (A') (A") (A') (A") (A") (A') (A') (A") (A") (A')
                 (A") (A') (A') (A") (A') (A') (A') (A') (A") (A')
                 (A") (A") (A') (A') (A") (A") (A') (A") (A') (A')
                 (A") (A') (A") (A") (A") (A') (A') (A') (A") (A')
                 (A") (A') (A') (A") (A') (A") (A') (A') (A") (A")
                 (A") (A') (A') (A") (A") (A') (A") (A') (A') (A")
                 (A') (A") (A') (A') (A") (A') (A') (A") (A') (A")
                 (A') (A") (A') (A") (A") (A') (A') (A') (A') (A")
                 (A') (A') (A') (A") (A") (A') (A') (A") (A") (A")
                 (A') (A") (A') (A') (A") (A") (A") (A') (A") (A')
                 (A") (A') (A") (A') (A') (A") (A') (A") (A") (A')
                 (A') (A') (A') (A") (A") (A') (A") (A') (A') (A")
                 (A") (A") (A") (A') (A') (A') (A') (A') (A") (A")
                 (A') (A') (A') (A") (A") (A") (A') (A') (A") (A')
                 (A') (A") (A') (A") (A") (A') (A") (A') (A") (A')
                 (A") (A') (A") (A") (A") (A') (A") (A') (A') (A')
                 (A") (A') (A") (A') (A') (A") (A') (A") (A") (A')
                 (A') (A") (A') (A') (A") (A') (A') (A") (A') (A')
                 (A") (A') (A") (A') (A')
 The electronic state is 1-A'.
 Alpha  occ. eigenvalues --  -18.90187 -14.24720 -10.11082 -10.11082 -10.10663
 Alpha  occ. eigenvalues --  -10.05074 -10.05074  -0.96576  -0.95473  -0.75207
 Alpha  occ. eigenvalues --   -0.74905  -0.61051  -0.58992  -0.54939  -0.46638
 Alpha  occ. eigenvalues --   -0.44392  -0.41771  -0.40504  -0.40283  -0.34331
 Alpha  occ. eigenvalues --   -0.34270  -0.32997  -0.26351  -0.20352  -0.18867
 Alpha virt. eigenvalues --   -0.04414  -0.04374  -0.00500   0.03718   0.05538
 Alpha virt. eigenvalues --    0.07927   0.08120   0.10349   0.13374   0.14789
 Alpha virt. eigenvalues --    0.16389   0.17658   0.18086   0.19089   0.21560
 Alpha virt. eigenvalues --    0.21796   0.22285   0.24756   0.26090   0.26445
 Alpha virt. eigenvalues --    0.28097   0.28619   0.28930   0.29364   0.30877
 Alpha virt. eigenvalues --    0.31494   0.33135   0.35401   0.35558   0.40617
 Alpha virt. eigenvalues --    0.41479   0.43996   0.44072   0.45726   0.49228
 Alpha virt. eigenvalues --    0.49251   0.49534   0.53252   0.54769   0.55882
 Alpha virt. eigenvalues --    0.56927   0.59075   0.63160   0.63450   0.68325
 Alpha virt. eigenvalues --    0.68637   0.71036   0.73041   0.77178   0.78785
 Alpha virt. eigenvalues --    0.79206   0.82843   0.88219   0.89019   0.89565
 Alpha virt. eigenvalues --    0.93670   0.96808   0.97093   0.98417   1.05357
 Alpha virt. eigenvalues --    1.07002   1.09129   1.11751   1.12194   1.13955
 Alpha virt. eigenvalues --    1.14834   1.16069   1.18757   1.19969   1.22868
 Alpha virt. eigenvalues --    1.22900   1.25548   1.25941   1.29832   1.34442
 Alpha virt. eigenvalues --    1.35116   1.35251   1.43175   1.43292   1.45698
 Alpha virt. eigenvalues --    1.46042   1.46112   1.47294   1.47711   1.55318
 Alpha virt. eigenvalues --    1.58422   1.58451   1.64325   1.65234   1.65551
 Alpha virt. eigenvalues --    1.68004   1.68530   1.74498   1.78765   1.79224
 Alpha virt. eigenvalues --    1.79604   1.83517   1.83630   1.84723   1.90837
 Alpha virt. eigenvalues --    1.92514   1.95333   1.97424   2.02468   2.06946
 Alpha virt. eigenvalues --    2.07998   2.11284   2.13967   2.14351   2.18459
 Alpha virt. eigenvalues --    2.19733   2.22421   2.24058   2.29250   2.41620
 Alpha virt. eigenvalues --    2.44607   2.50447   2.56894   2.61226   2.82263
 Alpha virt. eigenvalues --    2.92039   2.94613   2.94970   2.98517   3.14939
 Alpha virt. eigenvalues --    3.18084   3.22707   3.25128   3.25261   3.27233
 Alpha virt. eigenvalues --    3.27344   3.32701   3.37542   3.41210   3.42650
 Alpha virt. eigenvalues --    3.46966   3.48605   3.55675   3.59354   3.61397
 Alpha virt. eigenvalues --    3.61835   3.63479   3.69502   3.72257   3.72790
 Alpha virt. eigenvalues --    3.74644   3.74776   3.81832   3.82937   3.91059
 Alpha virt. eigenvalues --    3.97273   4.02071   4.03297   4.05417   4.05889
 Alpha virt. eigenvalues --    4.09491   4.10421   4.13178   4.15206   4.17170
 Alpha virt. eigenvalues --    4.17494   4.18722   4.24101   4.26339   4.26721
 Alpha virt. eigenvalues --    4.27512   4.27978   4.29824   4.31450   4.32857
 Alpha virt. eigenvalues --    4.33275   4.36156   4.36619   4.38911   4.41831
 Alpha virt. eigenvalues --    4.41938   4.42304   4.42595   4.48223   4.48336
 Alpha virt. eigenvalues --    4.48880   4.52382   4.53410   4.53521   4.55819
 Alpha virt. eigenvalues --    4.57486   4.60711   4.65141   4.65550   4.68733
 Alpha virt. eigenvalues --    4.69316   4.71785   4.74461   4.74915   4.77613
 Alpha virt. eigenvalues --    4.84352   4.88882   4.89681   4.90900   4.90914
 Alpha virt. eigenvalues --    5.01769   5.06721   5.06901   5.07155   5.07437
 Alpha virt. eigenvalues --    5.10951   5.20832   5.23060   5.23912   5.29375
 Alpha virt. eigenvalues --    5.32688   5.37227   5.39094   5.39434   5.41625
 Alpha virt. eigenvalues --    5.44914   5.47641   5.51563   5.53860   5.57988
 Alpha virt. eigenvalues --    5.58059   5.58986   5.67622   5.71879   5.73716
 Alpha virt. eigenvalues --    5.74149   5.79903   5.80118   5.85428   5.90268
 Alpha virt. eigenvalues --    5.90835   6.00966   6.02787   6.08208   6.09557
 Alpha virt. eigenvalues --    6.22718   6.24223   6.28988   6.29363   6.37895
 Alpha virt. eigenvalues --    6.49086   6.64052   6.65817   6.68485   7.01981
 Alpha virt. eigenvalues --    7.03897   7.11618   7.37493   9.59223  12.53766
 Alpha virt. eigenvalues --   12.66921  15.47979  17.10023  18.57999  22.78544
          Condensed to atoms (all electrons):
               1          2          3          4          5          6
     1  C    4.734794   0.488641  -0.022196  -0.034382  -0.080829   0.336843
     2  C    0.488641   4.947523   0.378301  -0.017794  -0.034382  -0.034358
     3  C   -0.022196   0.378301   4.445790   0.378301  -0.022196  -0.019917
     4  C   -0.034382  -0.017794   0.378301   4.947523   0.488641  -0.034358
     5  C   -0.080829  -0.034382  -0.022196   0.488641   4.734794   0.336843
     6  N    0.336843  -0.034358  -0.019917  -0.034358   0.336843   6.411446
     7  H    0.441854  -0.042869   0.006346  -0.003948  -0.003009  -0.051563
     8  H   -0.061109   0.475138  -0.052229   0.007623   0.000769   0.005686
     9  H    0.000769   0.007623  -0.052229   0.475138  -0.061109   0.005686
    10  H   -0.003009  -0.003948   0.006346  -0.042869   0.441854  -0.051563
    11  O    0.007589  -0.064725   0.408946  -0.064725   0.007589   0.000906
    12  H   -0.032194   0.006234  -0.001134   0.006234  -0.032194   0.431943
               7          8          9         10         11         12
     1  C    0.441854  -0.061109   0.000769  -0.003009   0.007589  -0.032194
     2  C   -0.042869   0.475138   0.007623  -0.003948  -0.064725   0.006234
     3  C    0.006346  -0.052229  -0.052229   0.006346   0.408946  -0.001134
     4  C   -0.003948   0.007623   0.475138  -0.042869  -0.064725   0.006234
     5  C   -0.003009   0.000769  -0.061109   0.441854   0.007589  -0.032194
     6  N   -0.051563   0.005686   0.005686  -0.051563   0.000906   0.431943
     7  H    0.661072  -0.016015   0.000406  -0.001815  -0.000895  -0.007062
     8  H   -0.016015   0.644906  -0.000449   0.000406   0.009045  -0.000306
     9  H    0.000406  -0.000449   0.644906  -0.016015   0.009045  -0.000306
    10  H   -0.001815   0.000406  -0.016015   0.661072  -0.000895  -0.007062
    11  O   -0.000895   0.009045   0.009045  -0.000895   8.296102   0.000079
    12  H   -0.007062  -0.000306  -0.000306  -0.007062   0.000079   0.479740
 Mulliken charges:
               1
     1  C    0.223229
     2  C   -0.105383
     3  C    0.545871
     4  C   -0.105383
     5  C    0.223229
     6  N   -0.337590
     7  H    0.017497
     8  H   -0.013465
     9  H   -0.013465
    10  H    0.017497
    11  O   -0.608063
    12  H    0.156027
 Sum of Mulliken charges =  -0.00000
 Mulliken charges with hydrogens summed into heavy atoms:
               1
     1  C    0.240725
     2  C   -0.118848
     3  C    0.545871
     4  C   -0.118848
     5  C    0.240725
     6  N   -0.181563
    11  O   -0.608063
 Electronic spatial extent (au):  <R**2>=            639.9741
 Charge=             -0.0000 electrons
 Dipole moment (field-independent basis, Debye):
    X=              0.0012    Y=              6.8243    Z=              0.0000  Tot=              6.8243
 Quadrupole moment (field-independent basis, Debye-Ang):
   XX=            -42.1756   YY=            -41.8782   ZZ=            -34.5794
   XY=             -0.0054   XZ=              0.0000   YZ=              0.0000
 Traceless Quadrupole moment (field-independent basis, Debye-Ang):
   XX=             -2.6312   YY=             -2.3338   ZZ=              4.9650
   XY=             -0.0054   XZ=              0.0000   YZ=              0.0000
 Octapole moment (field-independent basis, Debye-Ang**2):
  XXX=             -0.0036  YYY=             56.4283  ZZZ=             -0.0000  XYY=              0.0021
  XXY=             -2.1197  XXZ=              0.0000  XZZ=              0.0080  YZZ=              3.1932
  YYZ=             -0.0000  XYZ=              0.0000
 Hexadecapole moment (field-independent basis, Debye-Ang**3):
 XXXX=            -43.5056 YYYY=           -484.3274 ZZZZ=           -261.7710 XXXY=             -0.0314
 XXXZ=             -0.0000 YYYX=             -0.0731 YYYZ=             -0.0000 ZZZX=              0.0000
 ZZZY=             -0.0000 XXYY=            -89.7751 XXZZ=            -62.2668 YYZZ=           -116.0050
 XXYZ=             -0.0000 YYXZ=             -0.0000 ZZXY=             -0.0070
 N-N= 2.732804388411D+02 E-N=-1.301795939804D+03  KE= 3.222229830947D+02
 Symmetry A'   KE= 2.364840975015D+02
 Symmetry A"   KE= 8.573888559327D+01
 No NMR shielding tensors so no spin-rotation constants.
 Leave Link  601 at Fri Aug 27 21:16:54 2021, MaxMem= 17179869184 cpu:        83.1
 (Enter /public3/home/sc51754/softwares/g09e01/l701.exe)
 Compute integral first derivatives.
 ... and contract with generalized density number  0.
 Leave Link  701 at Fri Aug 27 21:16:56 2021, MaxMem= 17179869184 cpu:        75.1
 (Enter /public3/home/sc51754/softwares/g09e01/l702.exe)
 L702 exits ... SP integral derivatives will be done elsewhere.
 Leave Link  702 at Fri Aug 27 21:16:56 2021, MaxMem= 17179869184 cpu:         1.0
 (Enter /public3/home/sc51754/softwares/g09e01/l703.exe)
 Compute integral first derivatives, UseDBF=F ICtDFT=           0.
 Integral derivatives from FoFJK, PRISM(SPDF).
 Calling FoFJK, ICntrl=      2527 FMM=F ISym2X=1 I1Cent= 0 IOpClX= 0 NMat=1 NMatS=1 NMatT=0.
 FoFJK:  IHMeth= 1 ICntrl=    2527 DoSepK=F KAlg= 0 I1Cent=   0 FoldK=F
 IRaf=         0 NMat=   1 IRICut=       1 DoRegI=T DoRafI=F ISym2E= 1.
 FoFCou: FMM=F IPFlag=           0 FMFlag=      100000 FMFlg1=         800
         NFxFlg=           0 DoJE=F BraDBF=F KetDBF=F FulRan=T
         wScrn=  0.000000 ICntrl=    2527 IOpCl=  0 I1Cent=           0 NGrid=           0
         NMat0=    1 NMatS0=      1 NMatT0=    0 NMatD0=    1 NMtDS0=    0 NMtDT0=    0
 Petite list used in FoFCou.
 Leave Link  703 at Fri Aug 27 21:16:58 2021, MaxMem= 17179869184 cpu:       106.6
 (Enter /public3/home/sc51754/softwares/g09e01/l716.exe)
 Dipole        = 4.76665898D-04 2.68488384D+00 2.66289365D-15
 ***** Axes restored to original set *****
 -------------------------------------------------------------------
 Center     Atomic                   Forces (Hartrees/Bohr)
 Number     Number              X              Y              Z
 -------------------------------------------------------------------
      1        6          -0.000007883    0.003644050   -0.003245501
      2        6           0.000001384   -0.002624697   -0.004200605
      3        6          -0.000016546    0.003715100    0.000000000
      4        6           0.000001384   -0.002624697    0.004200605
      5        6          -0.000007883    0.003644050    0.003245501
      6        7           0.000003157    0.001039542   -0.000000000
      7        1           0.000015577    0.001808601   -0.003380665
      8        1           0.000007475   -0.002392197   -0.003034043
      9        1           0.000007475   -0.002392197    0.003034043
     10        1           0.000015577    0.001808601    0.003380665
     11        8          -0.000002090   -0.012344446   -0.000000000
     12        1          -0.000017626    0.006718291   -0.000000000
 -------------------------------------------------------------------
 Cartesian Forces:  Max     0.012344446 RMS     0.003198757
 Leave Link  716 at Fri Aug 27 21:16:58 2021, MaxMem= 17179869184 cpu:         0.7
 (Enter /public3/home/sc51754/softwares/g09e01/l103.exe)

 GradGradGradGradGradGradGradGradGradGradGradGradGradGradGradGradGradGrad
 Berny optimization.
 FormGI is forming the generalized inverse of G from B-inverse, IUseBI=4.
 Internal  Forces:  Max     0.012344446 RMS     0.003581874
 Search for a local minimum.
 Step number   1 out of a maximum of   64
 All quantities printed in internal units (Hartrees-Bohrs-Radians)
 RMS Force = .35819D-02 SwitMx=.10000D-02 MixMth= 1
 Mixed Optimization -- RFO/linear search
 Second derivative matrix not updated -- first step.
 ITU=  0
     Eigenvalues ---    0.01179   0.01465   0.01838   0.01956   0.02032
     Eigenvalues ---    0.02219   0.02234   0.02399   0.02441   0.16000
     Eigenvalues ---    0.16000   0.16000   0.16000   0.16000   0.22000
     Eigenvalues ---    0.22000   0.23391   0.25000   0.34645   0.35229
     Eigenvalues ---    0.35431   0.35431   0.35528   0.35528   0.46397
     Eigenvalues ---    0.47941   0.48075   0.51510   0.53792   0.89549
 RFO step:  Lambda=-1.38263256D-03 EMin= 1.17876314D-02
 Linear search not attempted -- first point.
 Iteration  1 RMS(Cart)=  0.01192505 RMS(Int)=  0.00000825
 Iteration  2 RMS(Cart)=  0.00000922 RMS(Int)=  0.00000130
 Iteration  3 RMS(Cart)=  0.00000000 RMS(Int)=  0.00000130
 ITry= 1 IFail=0 DXMaxC= 3.21D-02 DCOld= 1.00D+10 DXMaxT= 3.00D-01 DXLimC= 3.00D+00 Rises=F
 ClnCor:  largest displacement from symmetrization is 9.81D-12 for atom    10.
 Variable       Old X    -DE/DX   Delta X   Delta X   Delta X     New X
                                 (Linear)    (Quad)   (Total)
    R1        2.56220  -0.00934   0.00000  -0.01734  -0.01734   2.54487
    R2        2.59705  -0.00822   0.00000  -0.01669  -0.01669   2.58037
    R3        2.04981  -0.00381   0.00000  -0.01071  -0.01071   2.03910
    R4        2.77562  -0.00790   0.00000  -0.02145  -0.02145   2.75417
    R5        2.04825  -0.00381   0.00000  -0.01068  -0.01068   2.03757
    R6        2.77562  -0.00790   0.00000  -0.02145  -0.02145   2.75417
    R7        2.33142  -0.01234   0.00000  -0.01376  -0.01376   2.31765
    R8        2.56220  -0.00934   0.00000  -0.01734  -0.01734   2.54487
    R9        2.04825  -0.00381   0.00000  -0.01068  -0.01068   2.03757
   R10        2.59705  -0.00822   0.00000  -0.01669  -0.01669   2.58037
   R11        2.04981  -0.00381   0.00000  -0.01071  -0.01071   2.03910
   R12        1.90386  -0.00672   0.00000  -0.01444  -0.01444   1.88942
    A1        2.11471   0.00013   0.00000  -0.00021  -0.00021   2.11450
    A2        2.15142   0.00038   0.00000   0.00290   0.00290   2.15431
    A3        2.01706  -0.00052   0.00000  -0.00269  -0.00269   2.01437
    A4        2.12519   0.00005   0.00000   0.00097   0.00097   2.12617
    A5        2.09805  -0.00068   0.00000  -0.00454  -0.00454   2.09351
    A6        2.05994   0.00063   0.00000   0.00357   0.00357   2.06351
    A7        1.98154  -0.00042   0.00000  -0.00018  -0.00017   1.98137
    A8        2.15082   0.00021   0.00000   0.00009   0.00009   2.15091
    A9        2.15082   0.00021   0.00000   0.00009   0.00009   2.15091
   A10        2.12519   0.00005   0.00000   0.00097   0.00097   2.12617
   A11        2.05994   0.00063   0.00000   0.00357   0.00357   2.06351
   A12        2.09805  -0.00068   0.00000  -0.00454  -0.00454   2.09351
   A13        2.11471   0.00013   0.00000  -0.00021  -0.00021   2.11450
   A14        2.15142   0.00038   0.00000   0.00290   0.00290   2.15431
   A15        2.01706  -0.00052   0.00000  -0.00269  -0.00269   2.01437
   A16        2.10503   0.00005   0.00000  -0.00136  -0.00136   2.10367
   A17        2.08908  -0.00003   0.00000   0.00068   0.00068   2.08976
   A18        2.08908  -0.00003   0.00000   0.00068   0.00068   2.08976
    D1       -0.00015   0.00000   0.00000   0.00009   0.00009  -0.00006
    D2        3.14133   0.00000   0.00000   0.00018   0.00018   3.14152
    D3       -3.14143  -0.00000   0.00000  -0.00014  -0.00014  -3.14156
    D4        0.00006  -0.00000   0.00000  -0.00005  -0.00005   0.00001
    D5       -0.00035   0.00001   0.00000   0.00034   0.00034  -0.00000
    D6        3.14089   0.00000   0.00000   0.00015   0.00015   3.14104
    D7        3.14095   0.00001   0.00000   0.00056   0.00056   3.14151
    D8       -0.00100   0.00001   0.00000   0.00037   0.00037  -0.00063
    D9        0.00059  -0.00001   0.00000  -0.00048  -0.00048   0.00011
   D10       -3.14124   0.00000   0.00000   0.00011   0.00011  -3.14113
   D11       -3.14090  -0.00001   0.00000  -0.00057  -0.00057  -3.14147
   D12        0.00046  -0.00000   0.00000   0.00002   0.00002   0.00048
   D13       -0.00059   0.00001   0.00000   0.00048   0.00048  -0.00011
   D14        3.14090   0.00001   0.00000   0.00057   0.00057   3.14147
   D15        3.14124  -0.00000   0.00000  -0.00011  -0.00011   3.14113
   D16       -0.00046   0.00000   0.00000  -0.00002  -0.00002  -0.00048
   D17        0.00015  -0.00000   0.00000  -0.00009  -0.00009   0.00006
   D18        3.14143   0.00000   0.00000   0.00014   0.00014   3.14156
   D19       -3.14133  -0.00000   0.00000  -0.00018  -0.00018  -3.14152
   D20       -0.00006   0.00000   0.00000   0.00005   0.00005  -0.00001
   D21        0.00035  -0.00001   0.00000  -0.00034  -0.00034   0.00000
   D22       -3.14089  -0.00000   0.00000  -0.00015  -0.00015  -3.14104
   D23       -3.14095  -0.00001   0.00000  -0.00056  -0.00056  -3.14151
   D24        0.00100  -0.00001   0.00000  -0.00037  -0.00037   0.00063
         Item               Value     Threshold  Converged?
 Maximum Force            0.012344     0.000450     NO 
 RMS     Force            0.003582     0.000300     NO 
 Maximum Displacement     0.032051     0.001800     NO 
 RMS     Displacement     0.011927     0.001200     NO 
 Predicted change in Energy=-6.934091D-04
 Lowest energy point so far.  Saving SCF results.
 GradGradGradGradGradGradGradGradGradGradGradGradGradGradGradGradGradGrad

 Leave Link  103 at Fri Aug 27 21:16:59 2021, MaxMem= 17179869184 cpu:        46.8
 (Enter /public3/home/sc51754/softwares/g09e01/l202.exe)
                          Input orientation:                          
 ---------------------------------------------------------------------
 Center     Atomic      Atomic             Coordinates (Angstroms)
 Number     Number       Type             X           Y           Z
 ---------------------------------------------------------------------
      1          6           0       -0.000215   -1.043113    1.185686
      2          6           0       -0.000204    0.303161    1.219005
      3          6           0       -0.000122    1.102013    0.000000
      4          6           0       -0.000204    0.303161   -1.219005
      5          6           0       -0.000215   -1.043113   -1.185686
      6          7           0       -0.000220   -1.720357   -0.000000
      7          1           0       -0.000301   -1.659724    2.071197
      8          1           0       -0.000270    0.818176    2.166292
      9          1           0       -0.000270    0.818176   -2.166292
     10          1           0       -0.000301   -1.659724   -2.071197
     11          8           0        0.000365    2.328461    0.000000
     12          1           0        0.000252   -2.720198   -0.000000
 ---------------------------------------------------------------------
                    Distance matrix (angstroms):
                    1          2          3          4          5
     1  C    0.000000
     2  C    1.346686   0.000000
     3  C    2.451003   1.457442   0.000000
     4  C    2.755902   2.438010   1.457442   0.000000
     5  C    2.371372   2.755902   2.451003   1.346686   0.000000
     6  N    1.365471   2.362330   2.822370   2.362330   1.365471
     7  H    1.079046   2.139895   3.452108   3.831234   3.314739
     8  H    2.103803   1.078236   2.184808   3.424249   3.834078
     9  H    3.834078   3.424249   2.184808   1.078236   2.103803
    10  H    3.314739   3.831234   3.452108   2.139895   1.079046
    11  O    3.573984   2.363856   1.226449   2.363856   3.573984
    12  H    2.053890   3.259858   3.822210   3.259858   2.053890
                    6          7          8          9         10
     6  N    0.000000
     7  H    2.072084   0.000000
     8  H    3.337210   2.479725   0.000000
     9  H    3.337210   4.908799   4.332584   0.000000
    10  H    2.072084   4.142394   4.908799   2.479725   0.000000
    11  O    4.048819   4.493938   2.640792   2.640792   4.493938
    12  H    0.999840   2.326899   4.148845   4.148845   2.326899
                   11         12
    11  O    0.000000
    12  H    5.048659   0.000000
 Stoichiometry    C5H5NO
 Framework group  CS[SG(CHNO),X(C4H4)]
 Deg. of freedom    17
 Full point group                 CS      NOp   2
 RotChk:  IX=3 Diff= 1.22D-05
 Largest Abelian subgroup         CS      NOp   2
 Largest concise Abelian subgroup CS      NOp   2
                         Standard orientation:                         
 ---------------------------------------------------------------------
 Center     Atomic      Atomic             Coordinates (Angstroms)
 Number     Number       Type             X           Y           Z
 ---------------------------------------------------------------------
      1          6           0        0.000101    1.041404    1.185686
      2          6           0        0.000101   -0.304870    1.219005
      3          6           0        0.000026   -1.103722   -0.000000
      4          6           0        0.000101   -0.304870   -1.219005
      5          6           0        0.000101    1.041404   -1.185686
      6          7           0        0.000099    1.718648    0.000000
      7          1           0        0.000181    1.658015    2.071197
      8          1           0        0.000171   -0.819885    2.166292
      9          1           0        0.000171   -0.819885   -2.166292
     10          1           0        0.000181    1.658015   -2.071197
     11          8           0       -0.000450   -2.330170   -0.000000
     12          1           0       -0.000381    2.718489    0.000000
 ---------------------------------------------------------------------
 Rotational constants (GHZ):      5.7751171      2.7283530      1.8529563
 Leave Link  202 at Fri Aug 27 21:16:59 2021, MaxMem= 17179869184 cpu:         2.8
 (Enter /public3/home/sc51754/softwares/g09e01/l301.exe)
 Basis read from rwf:  (5D, 7F)
 No pseudopotential information found on rwf file.
 There are   183 symmetry adapted cartesian basis functions of A'  symmetry.
 There are   137 symmetry adapted cartesian basis functions of A"  symmetry.
 There are   158 symmetry adapted basis functions of A'  symmetry.
 There are   122 symmetry adapted basis functions of A"  symmetry.
   280 basis functions,   475 primitive gaussians,   320 cartesian basis functions
    25 alpha electrons       25 beta electrons
       nuclear repulsion energy       275.1230149313 Hartrees.
 IExCor= 4134 DFT=T Ex+Corr=M06L ExCW=0 ScaHFX=  0.000000
 ScaDFX=  1.000000  1.000000  1.000000  1.000000 ScalE2=  1.000000  1.000000
 IRadAn=      0 IRanWt=     -1 IRanGd=            0 ICorTp=0 IEmpDi=  4
 NAtoms=   12 NActive=   12 NUniq=    8 SFac= 2.25D+00 NAtFMM=   60 NAOKFM=F Big=F
 Integral buffers will be    131072 words long.
 Raffenetti 2 integral format.
 Two-electron integral symmetry is turned on.
 No density basis found on file   724.
 Leave Link  301 at Fri Aug 27 21:16:59 2021, MaxMem= 17179869184 cpu:         0.8
 (Enter /public3/home/sc51754/softwares/g09e01/l302.exe)
 NPDir=0 NMtPBC=     1 NCelOv=     1 NCel=       1 NClECP=     1 NCelD=      1
         NCelK=      1 NCelE2=     1 NClLst=     1 CellRange=     0.0.
 One-electron integrals computed using PRISM.
 One-electron integral symmetry used in STVInt
 NBasis=   280 RedAO= T EigKep=  1.76D-04  NBF=   158   122
 NBsUse=   280 1.00D-06 EigRej= -1.00D+00 NBFU=   158   122
 Precomputing XC quadrature grid using
 IXCGrd= 4 IRadAn=           0 IRanWt=          -1 IRanGd=           0 AccXCQ= 0.00D+00.
 Generated NRdTot=       0 NPtTot=           0 NUsed=           0 NTot=          32
 NSgBfM=   320   320   320   320   320 MxSgAt=    12 MxSgA2=    12.
 Leave Link  302 at Fri Aug 27 21:17:00 2021, MaxMem= 17179869184 cpu:        41.7
 (Enter /public3/home/sc51754/softwares/g09e01/l303.exe)
 DipDrv:  MaxL=1.
 Leave Link  303 at Fri Aug 27 21:17:00 2021, MaxMem= 17179869184 cpu:        11.5
 (Enter /public3/home/sc51754/softwares/g09e01/l401.exe)
 Initial guess from the checkpoint file:  "4PY_M06L_PC2_OPT_FREQ.chk"
 B after Tr=     0.000000    0.000000    0.000000
         Rot=    1.000000   -0.000000    0.000000   -0.000019 Ang=  -0.00 deg.
 Guess basis will be translated and rotated to current coordinates.
 JPrj=2 DoOrth=T DoCkMO=T.
 Initial guess orbital symmetries:
       Occupied  (A') (A') (A') (A") (A') (A") (A') (A') (A') (A')
                 (A") (A") (A') (A') (A") (A') (A") (A') (A') (A")
                 (A') (A') (A") (A') (A")
       Virtual   (A') (A') (A') (A') (A') (A') (A') (A') (A') (A')
                 (A') (A') (A') (A') (A') (A') (A') (A') (A') (A')
                 (A') (A') (A') (A') (A') (A') (A') (A') (A') (A')
                 (A') (A') (A') (A') (A') (A') (A') (A') (A') (A')
                 (A') (A') (A') (A') (A') (A') (A') (A') (A') (A')
                 (A') (A') (A') (A') (A') (A') (A') (A') (A') (A')
                 (A') (A') (A') (A') (A') (A') (A') (A') (A') (A')
                 (A') (A') (A') (A') (A') (A') (A') (A') (A') (A')
                 (A') (A') (A') (A') (A') (A') (A') (A') (A') (A')
                 (A') (A') (A') (A') (A') (A') (A') (A') (A') (A')
                 (A') (A') (A') (A') (A') (A') (A') (A') (A') (A')
                 (A') (A') (A') (A') (A') (A') (A') (A') (A') (A')
                 (A') (A') (A') (A') (A') (A') (A') (A') (A') (A')
                 (A') (A') (A') (A') (A') (A') (A') (A') (A') (A')
                 (A') (A') (A") (A") (A") (A") (A") (A") (A") (A")
                 (A") (A") (A") (A") (A") (A") (A") (A") (A") (A")
                 (A") (A") (A") (A") (A") (A") (A") (A") (A") (A")
                 (A") (A") (A") (A") (A") (A") (A") (A") (A") (A")
                 (A") (A") (A") (A") (A") (A") (A") (A") (A") (A")
                 (A") (A") (A") (A") (A") (A") (A") (A") (A") (A")
                 (A") (A") (A") (A") (A") (A") (A") (A") (A") (A")
                 (A") (A") (A") (A") (A") (A") (A") (A") (A") (A")
                 (A") (A") (A") (A") (A") (A") (A") (A") (A") (A")
                 (A") (A") (A") (A") (A") (A") (A") (A") (A") (A")
                 (A") (A") (A") (A") (A") (A") (A") (A") (A") (A")
                 (A") (A") (A") (A") (A")
 The electronic state of the initial guess is 1-A'.
 Generating alternative initial guess.
 ExpMin= 7.41D-02 ExpMax= 1.48D+04 ExpMxC= 5.05D+02 IAcc=2 IRadAn=         4 AccDes= 0.00D+00
 Harris functional with IExCor= 1009 and IRadAn=       4 diagonalized for initial guess.
 HarFok:  IExCor= 1009 AccDes= 0.00D+00 IRadAn=         4 IDoV= 1 UseB2=F ITyADJ=14
 ICtDFT=  3500011 ScaDFX=  1.000000  1.000000  1.000000  1.000000
 FoFCou: FMM=F IPFlag=           0 FMFlag=      100000 FMFlg1=           0
         NFxFlg=           0 DoJE=T BraDBF=F KetDBF=T FulRan=T
         wScrn=  0.000000 ICntrl=     500 IOpCl=  0 I1Cent=   200000004 NGrid=           0
         NMat0=    1 NMatS0=      1 NMatT0=    0 NMatD0=    1 NMtDS0=    0 NMtDT0=    0
 Petite list used in FoFCou.
 Harris En= -323.379795785248    
 Leave Link  401 at Fri Aug 27 21:17:01 2021, MaxMem= 17179869184 cpu:        60.4
 (Enter /public3/home/sc51754/softwares/g09e01/l502.exe)
 Closed shell SCF:
 Using DIIS extrapolation, IDIIS=  1040.
 Integral symmetry usage will be decided dynamically.
 Keep J ints in memory in symmetry-blocked form, NReq=1161351758.
 IVT=      348938 IEndB=      348938 NGot= 17179869184 MDV= 16792355177
 LenX= 16792355177 LenY= 16792252336
 Requested convergence on RMS density matrix=1.00D-08 within 128 cycles.
 Requested convergence on MAX density matrix=1.00D-06.
 Requested convergence on             energy=1.00D-06.
 No special actions if energy rises.
 FoFCou: FMM=F IPFlag=           0 FMFlag=           0 FMFlg1=           0
         NFxFlg=           0 DoJE=F BraDBF=F KetDBF=F FulRan=T
         wScrn=  0.000000 ICntrl=     600 IOpCl=  0 I1Cent=           0 NGrid=           0
         NMat0=    1 NMatS0=  39340 NMatT0=    0 NMatD0=    1 NMtDS0=    0 NMtDT0=    0
 Petite list used in FoFCou.
 Integral accuracy reduced to 1.0D-05 until final iterations.

 Cycle   1  Pass 0  IDiag  1:
 E= -323.581614196023    
 DIIS: error= 7.70D-04 at cycle   1 NSaved=   1.
 NSaved= 1 IEnMin= 1 EnMin= -323.581614196023     IErMin= 1 ErrMin= 7.70D-04
 ErrMax= 7.70D-04  0.00D+00 EMaxC= 1.00D-01 BMatC= 2.79D-04 BMatP= 2.79D-04
 IDIUse=3 WtCom= 9.92D-01 WtEn= 7.70D-03
 Coeff-Com:  0.100D+01
 Coeff-En:   0.100D+01
 Coeff:      0.100D+01
 Gap=     0.551 Goal=   None    Shift=    0.000
 RMSDP=8.30D-05 MaxDP=1.90D-03              OVMax= 3.58D-03

 Cycle   2  Pass 0  IDiag  1:
 E= -323.581762765596     Delta-E=       -0.000148569573 Rises=F Damp=F
 DIIS: error= 6.14D-04 at cycle   2 NSaved=   2.
 NSaved= 2 IEnMin= 2 EnMin= -323.581762765596     IErMin= 2 ErrMin= 6.14D-04
 ErrMax= 6.14D-04  0.00D+00 EMaxC= 1.00D-01 BMatC= 6.95D-05 BMatP= 2.79D-04
 IDIUse=3 WtCom= 9.94D-01 WtEn= 6.14D-03
 Coeff-Com:  0.280D+00 0.720D+00
 Coeff-En:   0.000D+00 0.100D+01
 Coeff:      0.278D+00 0.722D+00
 Gap=     0.147 Goal=   None    Shift=    0.000
 RMSDP=4.20D-05 MaxDP=1.79D-03 DE=-1.49D-04 OVMax= 5.78D-03

 Cycle   3  Pass 0  IDiag  1:
 E= -323.581750311645     Delta-E=        0.000012453951 Rises=F Damp=F
 DIIS: error= 6.16D-04 at cycle   3 NSaved=   3.
 NSaved= 3 IEnMin= 2 EnMin= -323.581762765596     IErMin= 2 ErrMin= 6.14D-04
 ErrMax= 6.16D-04  0.00D+00 EMaxC= 1.00D-01 BMatC= 8.37D-05 BMatP= 6.95D-05
 IDIUse=3 WtCom= 2.87D-01 WtEn= 7.13D-01
 Coeff-Com:  0.711D-01 0.515D+00 0.414D+00
 Coeff-En:   0.000D+00 0.537D+00 0.463D+00
 Coeff:      0.204D-01 0.530D+00 0.449D+00
 Gap=     0.145 Goal=   None    Shift=    0.000
 RMSDP=3.42D-05 MaxDP=1.74D-03 DE= 1.25D-05 OVMax= 6.29D-03

 Cycle   4  Pass 0  IDiag  1:
 E= -323.581807230054     Delta-E=       -0.000056918409 Rises=F Damp=F
 DIIS: error= 3.97D-04 at cycle   4 NSaved=   4.
 NSaved= 4 IEnMin= 4 EnMin= -323.581807230054     IErMin= 4 ErrMin= 3.97D-04
 ErrMax= 3.97D-04  0.00D+00 EMaxC= 1.00D-01 BMatC= 2.12D-05 BMatP= 6.95D-05
 IDIUse=3 WtCom= 9.96D-01 WtEn= 3.97D-03
 EnCoef did     5 forward-backward iterations
 Coeff-Com:  0.133D-01 0.308D+00 0.333D+00 0.346D+00
 Coeff-En:   0.000D+00 0.445D-01 0.226D+00 0.730D+00
 Coeff:      0.133D-01 0.307D+00 0.332D+00 0.348D+00
 Gap=     0.146 Goal=   None    Shift=    0.000
 RMSDP=1.80D-05 MaxDP=7.62D-04 DE=-5.69D-05 OVMax= 2.76D-03

 Cycle   5  Pass 0  IDiag  1:
 E= -323.581825950929     Delta-E=       -0.000018720875 Rises=F Damp=F
 DIIS: error= 4.02D-05 at cycle   5 NSaved=   5.
 NSaved= 5 IEnMin= 5 EnMin= -323.581825950929     IErMin= 5 ErrMin= 4.02D-05
 ErrMax= 4.02D-05  0.00D+00 EMaxC= 1.00D-01 BMatC= 3.88D-07 BMatP= 2.12D-05
 IDIUse=1 WtCom= 1.00D+00 WtEn= 0.00D+00
 Coeff-Com:  0.153D-02 0.125D+00 0.149D+00 0.189D+00 0.536D+00
 Coeff:      0.153D-02 0.125D+00 0.149D+00 0.189D+00 0.536D+00
 Gap=     0.146 Goal=   None    Shift=    0.000
 RMSDP=2.75D-06 MaxDP=1.06D-04 DE=-1.87D-05 OVMax= 4.50D-04

 Initial convergence to 1.0D-05 achieved.  Increase integral accuracy.
 Cycle   6  Pass 1  IDiag  1:
[...]
 Iteration  2 RMS(Cart)=  0.00000016 RMS(Int)=  0.00000014
 ITry= 1 IFail=0 DXMaxC= 1.25D-03 DCOld= 1.00D+10 DXMaxT= 3.00D-01 DXLimC= 3.00D+00 Rises=F
 ClnCor:  largest displacement from symmetrization is 1.12D-10 for atom    10.
 Variable       Old X    -DE/DX   Delta X   Delta X   Delta X     New X
                                 (Linear)    (Quad)   (Total)
    R1        2.54721  -0.00005   0.00000  -0.00007  -0.00007   2.54714
    R2        2.58064  -0.00003   0.00000  -0.00007  -0.00007   2.58057
    R3        2.03973  -0.00002   0.00000  -0.00004  -0.00004   2.03969
    R4        2.75582  -0.00003   0.00000  -0.00006  -0.00006   2.75576
    R5        2.03816  -0.00001   0.00000  -0.00001  -0.00001   2.03815
    R6        2.75582  -0.00003   0.00000  -0.00006  -0.00006   2.75576
    R7        2.31812  -0.00008   0.00000  -0.00011  -0.00011   2.31801
    R8        2.54721  -0.00005   0.00000  -0.00007  -0.00007   2.54714
    R9        2.03816  -0.00001   0.00000  -0.00001  -0.00001   2.03815
   R10        2.58064  -0.00003   0.00000  -0.00007  -0.00007   2.58057
   R11        2.03973  -0.00002   0.00000  -0.00004  -0.00004   2.03969
   R12        1.88956   0.00001   0.00000   0.00001   0.00001   1.88958
    A1        2.11502   0.00001   0.00000   0.00005   0.00005   2.11507
    A2        2.15330  -0.00002   0.00000  -0.00015  -0.00015   2.15315
    A3        2.01486   0.00001   0.00000   0.00010   0.00010   2.01496
    A4        2.12688   0.00001   0.00000   0.00006   0.00006   2.12695
    A5        2.09163  -0.00003   0.00000  -0.00028  -0.00028   2.09135
    A6        2.06467   0.00002   0.00000   0.00022   0.00022   2.06489
    A7        1.97968  -0.00001   0.00000  -0.00012  -0.00012   1.97956
    A8        2.15175   0.00001   0.00000   0.00006   0.00006   2.15181
    A9        2.15175   0.00001   0.00000   0.00006   0.00006   2.15181
   A10        2.12688   0.00001   0.00000   0.00006   0.00006   2.12695
   A11        2.06467   0.00002   0.00000   0.00022   0.00022   2.06489
   A12        2.09163  -0.00003   0.00000  -0.00028  -0.00028   2.09135
   A13        2.11502   0.00001   0.00000   0.00005   0.00005   2.11507
   A14        2.15330  -0.00002   0.00000  -0.00015  -0.00015   2.15315
   A15        2.01486   0.00001   0.00000   0.00010   0.00010   2.01496
   A16        2.10288  -0.00001   0.00000  -0.00011  -0.00011   2.10277
   A17        2.09015   0.00001   0.00000   0.00006   0.00006   2.09021
   A18        2.09015   0.00001   0.00000   0.00006   0.00006   2.09021
    D1        0.00031  -0.00002   0.00000  -0.00031  -0.00031  -0.00000
    D2       -3.14146  -0.00001   0.00000  -0.00013  -0.00013  -3.14159
    D3       -3.14132  -0.00002   0.00000  -0.00028  -0.00028   3.14159
    D4        0.00010  -0.00001   0.00000  -0.00009  -0.00009   0.00000
    D5        0.00025  -0.00001   0.00000  -0.00024  -0.00024   0.00001
    D6        3.14130   0.00000   0.00000   0.00028   0.00028   3.14158
    D7       -3.14131  -0.00001   0.00000  -0.00027  -0.00027  -3.14158
    D8       -0.00026   0.00000   0.00000   0.00025   0.00025  -0.00001
    D9       -0.00079   0.00004   0.00000   0.00079   0.00079  -0.00001
   D10       -3.14045  -0.00004   0.00000  -0.00115  -0.00115  -3.14159
   D11        3.14098   0.00003   0.00000   0.00061   0.00061   3.14158
   D12        0.00132  -0.00005   0.00000  -0.00133  -0.00133  -0.00000
   D13        0.00079  -0.00004   0.00000  -0.00079  -0.00079   0.00001
   D14       -3.14098  -0.00003   0.00000  -0.00061  -0.00061  -3.14158
   D15        3.14045   0.00004   0.00000   0.00115   0.00115   3.14159
   D16       -0.00132   0.00005   0.00000   0.00133   0.00133   0.00000
   D17       -0.00031   0.00002   0.00000   0.00031   0.00031   0.00000
   D18        3.14132   0.00002   0.00000   0.00028   0.00028  -3.14159
   D19        3.14146   0.00001   0.00000   0.00013   0.00013   3.14159
   D20       -0.00010   0.00001   0.00000   0.00009   0.00009  -0.00000
   D21       -0.00025   0.00001   0.00000   0.00024   0.00024  -0.00001
   D22       -3.14130  -0.00000   0.00000  -0.00028  -0.00028  -3.14158
   D23        3.14131   0.00001   0.00000   0.00027   0.00027   3.14158
   D24        0.00026  -0.00000   0.00000  -0.00025  -0.00025   0.00001
         Item               Value     Threshold  Converged?
 Maximum Force            0.000079     0.000450     YES
 RMS     Force            0.000026     0.000300     YES
 Maximum Displacement     0.001250     0.001800     YES
 RMS     Displacement     0.000258     0.001200     YES
 Predicted change in Energy=-2.240201D-07
 Optimization completed.
    -- Stationary point found.
                           ----------------------------
                           !   Optimized Parameters   !
                           ! (Angstroms and Degrees)  !
 --------------------------                            --------------------------
 ! Name  Definition              Value          Derivative Info.                !
 --------------------------------------------------------------------------------
 ! R1    R(1,2)                  1.3479         -DE/DX =    0.0                 !
 ! R2    R(1,6)                  1.3656         -DE/DX =    0.0                 !
 ! R3    R(1,7)                  1.0794         -DE/DX =    0.0                 !
 ! R4    R(2,3)                  1.4583         -DE/DX =    0.0                 !
 ! R5    R(2,8)                  1.0785         -DE/DX =    0.0                 !
 ! R6    R(3,4)                  1.4583         -DE/DX =    0.0                 !
 ! R7    R(3,11)                 1.2267         -DE/DX =   -0.0001              !
 ! R8    R(4,5)                  1.3479         -DE/DX =    0.0                 !
 ! R9    R(4,9)                  1.0785         -DE/DX =    0.0                 !
 ! R10   R(5,6)                  1.3656         -DE/DX =    0.0                 !
 ! R11   R(5,10)                 1.0794         -DE/DX =    0.0                 !
 ! R12   R(6,12)                 0.9999         -DE/DX =    0.0                 !
 ! A1    A(2,1,6)              121.1817         -DE/DX =    0.0                 !
 ! A2    A(2,1,7)              123.3751         -DE/DX =    0.0                 !
 ! A3    A(6,1,7)              115.4431         -DE/DX =    0.0                 !
 ! A4    A(1,2,3)              121.8615         -DE/DX =    0.0                 !
 ! A5    A(1,2,8)              119.8416         -DE/DX =    0.0                 !
 ! A6    A(3,2,8)              118.2969         -DE/DX =    0.0                 !
 ! A7    A(2,3,4)              113.4272         -DE/DX =    0.0                 !
 ! A8    A(2,3,11)             123.2863         -DE/DX =    0.0                 !
 ! A9    A(4,3,11)             123.2863         -DE/DX =    0.0                 !
 ! A10   A(3,4,5)              121.8615         -DE/DX =    0.0                 !
 ! A11   A(3,4,9)              118.2969         -DE/DX =    0.0                 !
 ! A12   A(5,4,9)              119.8416         -DE/DX =    0.0                 !
 ! A13   A(4,5,6)              121.1817         -DE/DX =    0.0                 !
 ! A14   A(4,5,10)             123.3751         -DE/DX =    0.0                 !
 ! A15   A(6,5,10)             115.4431         -DE/DX =    0.0                 !
 ! A16   A(1,6,5)              120.4864         -DE/DX =    0.0                 !
 ! A17   A(1,6,12)             119.7568         -DE/DX =    0.0                 !
 ! A18   A(5,6,12)             119.7568         -DE/DX =    0.0                 !
 ! D1    D(6,1,2,3)              0.0178         -DE/DX =    0.0                 !
 ! D2    D(6,1,2,8)           -179.9925         -DE/DX =    0.0                 !
 ! D3    D(7,1,2,3)            180.0159         -DE/DX =    0.0                 !
 ! D4    D(7,1,2,8)              0.0055         -DE/DX =    0.0                 !
 ! D5    D(2,1,6,5)              0.0143         -DE/DX =    0.0                 !
 ! D6    D(2,1,6,12)           179.9834         -DE/DX =    0.0                 !
 ! D7    D(7,1,6,5)           -179.9838         -DE/DX =    0.0                 !
 ! D8    D(7,1,6,12)            -0.0148         -DE/DX =    0.0                 !
 ! D9    D(1,2,3,4)             -0.0454         -DE/DX =    0.0                 !
 ! D10   D(1,2,3,11)          -179.9343         -DE/DX =    0.0                 !
 ! D11   D(8,2,3,4)            179.9647         -DE/DX =    0.0                 !
 ! D12   D(8,2,3,11)             0.0758         -DE/DX =   -0.0001              !
 ! D13   D(2,3,4,5)              0.0454         -DE/DX =    0.0                 !
 ! D14   D(2,3,4,9)           -179.9647         -DE/DX =    0.0                 !
 ! D15   D(11,3,4,5)           179.9343         -DE/DX =    0.0                 !
 ! D16   D(11,3,4,9)            -0.0758         -DE/DX =    0.0001              !
 ! D17   D(3,4,5,6)             -0.0178         -DE/DX =    0.0                 !
 ! D18   D(3,4,5,10)          -180.0159         -DE/DX =    0.0                 !
 ! D19   D(9,4,5,6)            179.9925         -DE/DX =    0.0                 !
 ! D20   D(9,4,5,10)            -0.0055         -DE/DX =    0.0                 !
 ! D21   D(4,5,6,1)             -0.0143         -DE/DX =    0.0                 !
 ! D22   D(4,5,6,12)          -179.9834         -DE/DX =    0.0                 !
 ! D23   D(10,5,6,1)           179.9838         -DE/DX =    0.0                 !
 ! D24   D(10,5,6,12)            0.0148         -DE/DX =    0.0                 !
 --------------------------------------------------------------------------------
 GradGradGradGradGradGradGradGradGradGradGradGradGradGradGradGradGradGrad

 Leave Link  103 at Fri Aug 27 21:18:20 2021, MaxMem= 17179869184 cpu:        38.2
 (Enter /public3/home/sc51754/softwares/g09e01/l9999.exe)
 1\1\GINC-T1507\Freq\RM06L\Gen\C5H5N1O1\SC51754\27-Aug-2021\0\\#P Geom=
 AllCheck Guess=TCheck SCRF=Check GenChk RM06L/ChkBas Freq\\4PY_M06L_PC
 2_OPT_FREQ\\0,1\C,-0.00020084,-1.0437119481,1.1855438714\C,-0.00021771
 03,0.3037947987,1.2190626433\C,-0.0007669409,1.1041548253,0.\C,-0.0002
 177103,0.3037947987,-1.2190626433\C,-0.00020084,-1.0437119481,-1.18554
 38714\N,-0.000337572,-1.7214927491,0.\H,-0.0000503189,-1.6597294526,2.
 0718746865\H,0.0000146346,0.8170548179,2.167657271\H,0.0000146346,0.81
 70548179,-2.167657271\H,-0.0000503189,-1.6597294526,-2.0718746865\O,0.
 0003799311,2.3308489153,0.\H,-0.0000709492,-2.7214074233,0.\\Version=E
 M64L-G09RevE.01\State=1-A'\HF=-323.582281\RMSD=1.681e-09\RMSF=5.629e-0
 5\ZeroPoint=0.0937342\Thermal=0.0991189\Dipole=-0.0003922,-2.6857593,0
 .\DipoleDeriv=-0.0603052,0.0002557,0.0000423,-0.0000422,0.6714569,0.23
 64485,0.0001154,0.3853355,0.4075888,-0.1813694,0.0001621,-0.0000777,0.
 0000405,-0.5241092,0.0430668,0.0000844,0.463654,-0.1156415,0.2333499,0
 .0002216,0.,-0.0000882,1.8461284,0.,0.,0.,0.5335866,-0.1813694,0.00016
 21,0.0000777,0.0000405,-0.5241092,-0.0430668,-0.0000844,-0.463654,-0.1
 156415,-0.0603052,0.0002557,-0.0000423,-0.0000422,0.6714569,-0.2364485
 ,-0.0001154,-0.3853355,0.4075888,-0.1636085,-0.0006037,0.,-0.0000664,-
 0.8369888,0.,0.,0.,-0.6489092,0.135821,0.0000639,-0.00001,-0.0000012,-
 0.0016621,0.0791468,-0.000043,0.0613071,-0.0270444,0.1321498,-0.000001
 7,-0.0000359,-0.0000087,0.0398349,-0.0386399,-0.0000227,-0.0282439,-0.
 0426256,0.1321498,-0.0000017,0.0000359,-0.0000087,0.0398349,0.0386399,
 0.0000227,0.0282439,-0.0426256,0.135821,0.0000639,0.00001,-0.0000012,-
 0.0016621,-0.0791468,0.000043,-0.0613071,-0.0270444,-0.4104441,-0.0007
 548,0.,0.0001586,-1.6271147,0.,0.,0.,-0.4550346,0.2881102,0.000177,0.,
 0.0000192,0.2469343,0.,0.,0.,0.1258024\Polar=37.047476,0.004337,91.268
 2327,0.,0.,69.5082027\PG=CS [SG(C1H1N1O1),X(C4H4)]\NImag=0\\0.13139540
 ,-0.00005169,0.83016998,0.00007221,-0.05319404,0.68736948,-0.05233356,
 0.00002201,-0.00003098,0.10733650,0.00003430,-0.46274354,0.01333481,0.
 00000745,0.79593776,-0.00002797,-0.01546992,-0.12925099,0.00014660,0.0
 8068526,0.64469724,-0.00092101,-0.00002327,0.00000615,-0.07357091,0.00
 005350,-0.00006882,0.19699602,0.00001590,-0.03184085,0.02669083,0.0000
 4323,-0.11174648,0.03803143,0.00042136,0.89002222,0.00001538,0.0395031
 0,0.04074708,-0.00008711,0.02479627,-0.21174957,0.,0.,0.53244473,-0.00
 107875,0.00000571,0.00000460,0.00729553,0.00000129,-0.00001149,-0.0735
 7091,0.00004323,0.00008711,0.10733650,-0.00000517,-0.01134222,-0.02064
 472,0.00000129,0.02872337,0.00762605,0.00005350,-0.11174648,-0.0247962
 6,0.00000745,0.79593776,-0.00000184,0.00333473,-0.00261642,0.00001149,
 -0.00762605,-0.03172768,0.00006882,-0.03803143,-0.21174957,-0.00014660
 ,-0.08068526,0.64469724,0.00541722,0.00000190,-0.00000368,-0.00107875,
 -0.00000517,0.00000184,-0.00092101,0.00001590,-0.00001538,-0.05233356,
 0.00003430,0.00002797,0.13139540,0.00000190,0.02176868,0.00848158,0.00
 000571,-0.01134222,-0.00333473,-0.00002327,-0.03184085,-0.03950310,0.0
 0002201,-0.46274354,0.01546992,-0.00005169,0.83016998,0.00000368,-0.00
 848158,-0.07122510,-0.00000460,0.02064472,-0.00261642,-0.00000615,-0.0
 2669083,0.04074708,0.00003098,-0.01333481,-0.12925099,-0.00007221,0.05
 319404,0.68736948,-0.04487746,0.00001965,-0.00001695,0.00949320,-0.000
 01703,0.00000871,-0.00982674,0.00000732,0.,0.00949320,-0.00001703,-0.0
 0000871,-0.04487746,0.00001965,0.00001695,0.06424456,-0.00000629,-0.17
 765819,-0.09520245,-0.00001091,-0.04142014,-0.04099998,0.00000760,0.01
 050374,0.,-0.00001091,-0.04142014,0.04099998,-0.00000629,-0.17765819,0
 .09520245,-0.00011752,0.88704937,-0.00003493,-0.06434684,-0.27167750,0
 .00000253,-0.05074191,0.00412890,0.,0.,-0.05057316,-0.00000253,0.05074
 191,0.00412890,0.00003493,0.06434684,-0.27167750,0.,0.,0.69254104,-0.0
 3678168,0.00001681,-0.00003508,0.00689574,0.00000255,-0.00000552,0.011
 61832,-0.00000257,0.00000316,-0.00114575,-0.00000043,0.00000089,0.0036
 2949,-0.00000367,-0.00000025,0.00043746,0.00000666,-0.00000334,0.02474
 811,0.00001703,-0.15510132,0.13815838,0.00001435,-0.01129412,0.0278642
 4,-0.00000081,-0.00222996,-0.00595859,-0.00000034,0.00048129,0.0002381
 7,-0.00000053,-0.00224898,-0.00211106,-0.00000153,0.01244795,-0.019869
 15,-0.00002492,0.15787312,-0.00003644,0.12896764,-0.24565432,0.0000019
 8,-0.00140171,0.00606103,-0.00000155,-0.00185745,0.00064784,-0.0000002
 8,0.00053707,0.00103772,-0.00000226,-0.00676537,-0.00105058,-0.0000046
 3,0.01829267,-0.02777048,0.00004047,-0.13963599,0.26650757,-0.00173839
 ,0.00000439,0.00000073,-0.03125317,-0.00003381,-0.00005818,0.00432300,
 -0.00000935,-0.00001429,0.00396528,0.00000125,-0.00000458,-0.00024040,
 0.00000449,-0.00000120,0.00916440,-0.00000112,0.00000279,-0.00544647,0
 .00000053,0.00000084,0.02393913,-0.00000601,-0.00933204,-0.02914704,-0
 .00002906,-0.12029271,-0.11894045,0.00000529,0.01273643,0.01489465,-0.
 00000008,-0.00190516,0.00307538,-0.00000003,-0.00066653,0.00097920,0.0
 0000172,-0.00585460,0.00132743,-0.00000121,0.00087036,0.00010633,0.000
 03082,0.12356322,0.00000275,0.00348050,0.00235422,-0.00007113,-0.12269
 026,-0.28186532,-0.00000552,-0.01871958,-0.01807256,-0.00000340,0.0038
 5311,-0.00419572,0.00000040,0.00191997,-0.00072668,-0.00000479,0.00140
 669,0.00382972,0.00000328,-0.00061251,0.00083458,0.00007429,0.13137349
 ,0.29454653,-0.00024040,0.00000449,0.00000120,0.00396528,0.00000125,0.
 00000458,0.00432300,-0.00000935,0.00001429,-0.03125317,-0.00003381,0.0
 0005818,-0.00173839,0.00000439,-0.00000073,0.00916440,-0.00000112,-0.0
 0000279,-0.00080534,-0.00000023,0.00000040,-0.00110929,-0.00000114,0.0
 0000140,0.02393913,-0.00000003,-0.00066653,-0.00097920,-0.00000008,-0.
 00190516,-0.00307538,0.00000529,0.01273643,-0.01489465,-0.00002906,-0.
 12029271,0.11894045,-0.00000601,-0.00933204,0.02914704,0.00000172,-0.0
 0585460,-0.00132743,0.00000017,0.00011102,0.00013908,-0.00000114,0.000
 56533,-0.00094239,0.00003082,0.12356322,-0.00000040,-0.00191997,-0.000
 72668,0.00000340,-0.00385311,-0.00419572,0.00000552,0.01871958,-0.0180
 7256,0.00007113,0.12269026,-0.28186532,-0.00000275,-0.00348050,0.00235
 422,0.00000479,-0.00140669,0.00382972,-0.00000054,0.00011422,0.0000294
 1,-0.00000140,0.00094239,-0.00123359,-0.00007429,-0.13137349,0.2945465
 3,0.00362949,-0.00000367,0.00000025,-0.00114575,-0.00000043,-0.0000008
 9,0.01161832,-0.00000257,-0.00000316,0.00689574,0.00000255,0.00000552,
 -0.03678168,0.00001681,0.00003508,0.00043746,0.00000666,0.00000334,0.0
 0119962,0.00000025,0.00000032,-0.00080534,0.00000017,0.00000054,-0.005
 44647,-0.00000121,-0.00000328,0.02474811,-0.00000053,-0.00224898,0.002
 11106,-0.00000034,0.00048129,-0.00023817,-0.00000081,-0.00222996,0.005
 95859,0.00001435,-0.01129412,-0.02786424,0.00001703,-0.15510132,-0.138
 15838,-0.00000153,0.01244795,0.01986915,0.00000025,0.00055672,0.000744
 87,-0.00000023,0.00011102,-0.00011422,0.00000053,0.00087036,0.00061251
 ,-0.00002492,0.15787312,0.00000226,0.00676537,-0.00105058,0.00000028,-
 0.00053707,0.00103772,0.00000155,0.00185745,0.00064784,-0.00000198,0.0
 0140171,0.00606103,0.00003644,-0.12896764,-0.24565432,0.00000463,-0.01
 829268,-0.02777048,-0.00000032,-0.00074487,-0.00134268,-0.00000040,-0.
 00013908,0.00002941,-0.00000084,-0.00010633,0.00083458,-0.00004047,0.1
 3963599,0.26650757,0.00429313,0.00001009,0.00000064,0.02116610,-0.0000
 4120,0.00001194,-0.06936103,-0.00052239,0.,0.02116610,-0.00004120,-0.0
 0001194,0.00429313,0.00001009,-0.00000064,0.00020560,-0.00000383,0.,-0
 .00247833,-0.00000276,0.00000058,-0.00279763,-0.00000047,0.00000334,-0
 .00279763,-0.00000047,-0.00000334,-0.00247833,-0.00000276,-0.00000058,
 0.02924115,-0.00000150,0.01095528,0.00783849,-0.00005388,-0.06706141,0
 .03154053,-0.00049818,-0.63378200,0.,-0.00005388,-0.06706141,-0.031540
 53,-0.00000150,0.01095528,-0.00783849,-0.00000896,-0.00872440,0.,0.000
 00741,-0.00268838,0.00047107,0.00000373,0.00069989,0.00061670,0.000003
 73,0.00069989,-0.00061670,0.00000741,-0.00268838,-0.00047107,0.0005946
 3,0.75745928,-0.00000493,-0.00416545,-0.01451810,0.00002910,0.04892411
 ,0.01198018,0.,0.,-0.10305939,-0.00002910,-0.04892411,0.01198018,0.000
 00493,0.00416545,-0.01451810,0.,0.,0.01293153,-0.00000306,0.00223449,0
 .00017415,0.00000198,-0.00295155,0.00423105,-0.00000198,0.00295155,0.0
 0423105,0.00000306,-0.00223449,0.00017415,0.,0.,0.08564326,-0.00676399
 ,-0.00000641,0.00000092,0.00322979,-0.00000270,-0.00000081,-0.00070704
 ,-0.00000070,0.,0.00322979,-0.00000270,0.00000081,-0.00676400,-0.00000
 641,-0.00000092,-0.00305862,0.00013709,0.,-0.00187118,-0.00000106,0.00
 000057,0.00199888,-0.00000001,-0.00000117,0.00199888,-0.00000001,0.000
 00117,-0.00187118,-0.00000106,-0.00000057,-0.00045225,0.00000099,0.,0.
 01103093,0.00000210,-0.01196027,0.00255230,0.00000022,0.00266334,-0.00
 368887,-0.00000019,-0.00058227,0.,0.00000022,0.00266334,0.00368887,0.0
 0000210,-0.01196027,-0.00255230,0.00011353,-0.46385875,0.,-0.00000105,
 0.00122229,0.00040179,0.00000044,-0.00049523,0.00042849,0.00000044,-0.
 00049523,-0.00042849,-0.00000105,0.00122229,-0.00040179,0.00000028,0.0
 0123633,0.,-0.00011701,0.48034442,0.00001023,-0.03447355,0.00624890,-0
 .00000155,-0.00153506,-0.00649937,0.,0.,-0.00195778,0.00000155,0.00153
 506,-0.00649937,-0.00001023,0.03447355,0.00624890,0.,0.,-0.07192068,0.
 00000032,0.00032265,0.00052576,-0.00000058,-0.00152074,0.00026837,0.00
 000058,0.00152074,0.00026837,-0.00000032,-0.00032265,0.00052576,0.,0.,
 0.00075004,0.,0.,0.07204111\\0.00000693,-0.00002034,0.00001779,0.00008
 708,0.00001026,0.00003575,-0.00026905,-0.00005250,0.,0.00008708,0.0000
 1026,-0.00003575,0.00000693,-0.00002034,-0.00001779,0.00000089,-0.0000
 2345,0.,-0.00001113,-0.00001944,0.00000556,-0.00000129,0.00002513,-0.0
 0000574,-0.00000129,0.00002513,0.00000574,-0.00001113,-0.00001944,-0.0
 0000556,0.00010096,0.00007904,0.,0.00000401,0.00000568,0.\\\@


 LOVE IS BLIND, THAT'S WHY ALL THE WORLD LOVES A LOUVER.
 Job cpu time:       0 days  0 hours 41 minutes 16.6 seconds.
 File lengths (MBytes):  RWF=     65 Int=      0 D2E=      0 Chk=      7 Scr=      1
 Normal termination of Gaussian 09 at Fri Aug 27 21:18:20 2021.
