 Entering Gaussian System, Link 0=g09
 AtFile(1): pc-2.gbs
            -H     0
            S    4   1.00
                  0.754230D+02           0.240650D-02
                  0.113500D+02           0.184870D-01
                  0.259930D+01           0.897420D-01
                  0.735130D+00           0.281110D+00
            S    1   1.00
                  0.231670D+00           0.100000D+01
            S    1   1.00
                  0.741470D-01           0.100000D+01
            P    1   1.00
                  0.160000D+01           0.100000D+01
            P    1   1.00
                  0.450000D+00           0.100000D+01
            D    1   1.00
                  0.125000D+01           0.100000D+01
            ****
            -C     0
            S    7   1.00
                  0.785710D+04           0.568250D-03
                  0.117870D+04           0.439150D-02
                  0.268320D+03           0.225040D-01
                  0.759480D+02           0.866530D-01
                  0.245590D+02           0.244050D+00
                  0.862120D+01           0.441480D+00
                  0.312780D+01           0.353320D+00
            S    7   1.00
                  0.117870D+04          -0.594920D-06
                  0.268320D+03          -0.627480D-04
                  0.759480D+02          -0.757730D-03
                  0.245590D+02          -0.733080D-02
                  0.862120D+01          -0.389320D-01
                  0.312780D+01          -0.889080D-01
                  0.822020D+00           0.216890D+00
            S    1   1.00
                  0.330170D+00           0.100000D+01
            S    1   1.00
                  0.114630D+00           0.100000D+01
            P    4   1.00
                  0.337750D+02           0.602940D-02
                  0.767660D+01           0.432280D-01
                  0.223570D+01           0.163010D+00
                  0.764470D+00           0.365040D+00
            P    1   1.00
                  0.262320D+00           0.100000D+01
            P    1   1.00
                  0.846380D-01           0.100000D+01
            D    1   1.00
                  0.140000D+01           0.100000D+01
            D    1   1.00
                  0.450000D+00           0.100000D+01
            F    1   1.00
                  0.950000D+00           0.100000D+01
            ****
            -N     0
            S    7   1.00
                  0.111010D+05           0.545700D-03
                  0.166530D+04           0.421810D-02
                  0.379080D+03           0.216450D-01
                  0.107300D+03           0.837760D-01
                  0.347470D+02           0.238810D+00
                  0.122490D+02           0.439940D+00
                  0.447430D+01           0.363640D+00
            S    7   1.00
                  0.166530D+04          -0.150060D-05
                  0.379080D+03          -0.587530D-04
                  0.107300D+03          -0.774530D-03
                  0.347470D+02          -0.721610D-02
                  0.122490D+02          -0.393380D-01
                  0.447430D+01          -0.906110D-01
                  0.124040D+01           0.198820D+00
            S    1   1.00
                  0.487430D+00           0.100000D+01
            S    1   1.00
                  0.164840D+00           0.100000D+01
            P    4   1.00
                  0.479340D+02           0.617060D-02
                  0.109990D+02           0.442600D-01
                  0.324720D+01           0.168250D+00
                  0.111140D+01           0.368480D+00
            P    1   1.00
                  0.379880D+00           0.100000D+01
            P    1   1.00
                  0.120680D+00           0.100000D+01
            D    1   1.00
                  0.180000D+01           0.100000D+01
            D    1   1.00
                  0.550000D+00           0.100000D+01
            F    1   1.00
                  0.102000D+01           0.100000D+01
            ****
            -O     0
            S    7   1.00
                  0.147820D+05           0.535190D-03
                  0.221730D+04           0.413750D-02
                  0.504740D+03           0.212450D-01
                  0.142870D+03           0.824530D-01
                  0.463000D+02           0.236710D+00
                  0.163370D+02           0.440390D+00
                  0.598280D+01           0.364650D+00
            S    7   1.00
                  0.221730D+04          -0.192750D-05
                  0.504740D+03          -0.579640D-04
                  0.142870D+03          -0.794940D-03
                  0.463000D+02          -0.731250D-02
                  0.163370D+02          -0.405740D-01
                  0.598280D+01          -0.915940D-01
                  0.167180D+01           0.209400D+00
            S    1   1.00
                  0.646620D+00           0.100000D+01
            S    1   1.00
                  0.216690D+00           0.100000D+01
            P    4   1.00
                  0.604240D+02           0.689490D-02
                  0.139350D+02           0.490050D-01
                  0.415310D+01           0.182550D+00
                  0.141580D+01           0.376330D+00
            P    1   1.00
                  0.475490D+00           0.100000D+01
            P    1   1.00
                  0.145290D+00           0.100000D+01
            D    1   1.00
                  0.220000D+01           0.100000D+01
            D    1   1.00
                  0.650000D+00           0.100000D+01
            F    1   1.00
                  0.110000D+01           0.100000D+01
            ****
 Initial command:
 /public3/home/sc51754/softwares/g09e01/l1.exe "./Gau-2878.inp" -scrdir="./"
 Entering Link 1 = /public3/home/sc51754/softwares/g09e01/l1.exe PID=      2880.
  
 Copyright (c) 1988,1990,1992,1993,1995,1998,2003,2009,2015,
            Gaussian, Inc.  All Rights Reserved.
  
 This is part of the Gaussian(R) 09 program.  It is based on
 the Gaussian(R) 03 system (copyright 2003, Gaussian, Inc.),
 the Gaussian(R) 98 system (copyright 1998, Gaussian, Inc.),
 the Gaussian(R) 94 system (copyright 1995, Gaussian, Inc.),
 the Gaussian 92(TM) system (copyright 1992, Gaussian, Inc.),
 the Gaussian 90(TM) system (copyright 1990, Gaussian, Inc.),
 the Gaussian 88(TM) system (copyright 1988, Gaussian, Inc.),
 the Gaussian 86(TM) system (copyright 1986, Carnegie Mellon
 University), and the Gaussian 82(TM) system (copyright 1983,
 Carnegie Mellon University). Gaussian is a federally registered
 trademark of Gaussian, Inc.
  
 This software contains proprietary and confidential information,
 including trade secrets, belonging to Gaussian, Inc.
  
 This software is provided under written license and may be
 used, copied, transmitted, or stored only in accord with that
 written license.
  
 The following legend is applicable only to US Government
 contracts under FAR:
  
                    RESTRICTED RIGHTS LEGEND
  
 Use, reproduction and disclosure by the US Government is
 subject to restrictions as set forth in subparagraphs (a)
 and (c) of the Commercial Computer Software - Restricted
 Rights clause in FAR 52.227-19.
  
 Gaussian, Inc.
 340 Quinnipiac St., Bldg. 40, Wallingford CT 06492
  
  
 ---------------------------------------------------------------
 Warning -- This program may not be used in any manner that
 competes with the business of Gaussian, Inc. or will provide
 assistance to any competitor of Gaussian, Inc.  The licensee
 of this program is prohibited from giving any competitor of
 Gaussian, Inc. access to this program.  By using this program,
 the user acknowledges that Gaussian, Inc. is engaged in the
 business of creating and licensing software in the field of
 computational chemistry and represents and warrants to the
 licensee that it is not a competitor of Gaussian, Inc. and that
 it will not use this program in any manner prohibited above.
 ---------------------------------------------------------------
  

 Cite this work as:
 Gaussian 09, Revision E.01,
 M. J. Frisch, G. W. Trucks, H. B. Schlegel, G. E. Scuseria, 
 M. A. Robb, J. R. Cheeseman, G. Scalmani, V. Barone, B. Mennucci, 
 G. A. Petersson, H. Nakatsuji, M. Caricato, X. Li, H. P. Hratchian, 
 A. F. Izmaylov, J. Bloino, G. Zheng, J. L. Sonnenberg, M. Hada, 
 M. Ehara, K. Toyota, R. Fukuda, J. Hasegawa, M. Ishida, T. Nakajima, 
 Y. Honda, O. Kitao, H. Nakai, T. Vreven, J. A. Montgomery, Jr., 
 J. E. Peralta, F. Ogliaro, M. Bearpark, J. J. Heyd, E. Brothers, 
 K. N. Kudin, V. N. Staroverov, T. Keith, R. Kobayashi, J. Normand, 
 K. Raghavachari, A. Rendell, J. C. Burant, S. S. Iyengar, J. Tomasi, 
 M. Cossi, N. Rega, J. M. Millam, M. Klene, J. E. Knox, J. B. Cross, 
 V. Bakken, C. Adamo, J. Jaramillo, R. Gomperts, R. E. Stratmann, 
 O. Yazyev, A. J. Austin, R. Cammi, C. Pomelli, J. W. Ochterski, 
 R. L. Martin, K. Morokuma, V. G. Zakrzewski, G. A. Voth, 
 P. Salvador, J. J. Dannenberg, S. Dapprich, A. D. Daniels, 
 O. Farkas, J. B. Foresman, J. V. Ortiz, J. Cioslowski, 
 and D. J. Fox, Gaussian, Inc., Wallingford CT, 2013.
 
 ******************************************
 Gaussian 09:  EM64L-G09RevE.01 30-Nov-2015
                27-Aug-2021 
 ******************************************
 %nprocshared=64
 Will use up to   64 processors via shared memory.
 %mem=128GB
 %chk=4PY_M06_PC2_OPT_FREQ.chk
 -------------------
 #p opt freq M06/gen
 -------------------
 1/14=-1,18=20,19=15,26=3,38=1/1,3;
 2/9=110,12=2,17=6,18=5,40=1/2;
 3/5=7,11=2,16=1,25=1,30=1,71=1,74=-54/1,2,3;
 4//1;
 5/5=2,38=5/2;
 6/7=2,8=2,9=2,10=2,28=1/1;
 7//1,2,3,16;
 1/14=-1,18=20,19=15,26=3/3(2);
 2/9=110/2;
 99//99;
 2/9=110/2;
 3/5=7,6=1,11=2,16=1,25=1,30=1,71=1,74=-54,82=7/1,2,3;
 4/5=5,16=3,69=1/1;
 5/5=2,38=5/2;
 7//1,2,3,16;
 1/14=-1,18=20,19=15,26=3/3(-5);
 2/9=110/2;
 6/7=2,8=2,9=2,10=2,19=2,28=1/1;
 99/9=1/99;
 Leave Link    1 at Fri Aug 27 21:27:24 2021, MaxMem= 17179869184 cpu:         4.2
 (Enter /public3/home/sc51754/softwares/g09e01/l101.exe)
 --------------------
 4PY_M06_PC2_OPT_FREQ
 --------------------
 Symbolic Z-matrix:
 Charge =  0 Multiplicity = 1
 C                    -0.00018  -1.04887   1.19382 
 C                    -0.00018   0.30655   1.22857 
 C                     0.00022   1.11152   0. 
 C                    -0.00018   0.30655  -1.22857 
 C                    -0.00018  -1.04887  -1.19382 
 N                     0.00002  -1.72968   0. 
 H                    -0.00063  -1.66693   2.08522 
 H                    -0.00059   0.82774   2.17893 
 H                    -0.00059   0.82774  -2.17893 
 H                    -0.00063  -1.66693  -2.08522 
 O                     0.0006    2.34525   0. 
 H                     0.00063  -2.73716   0. 
 
 NAtoms=     12 NQM=       12 NQMF=       0 NMMI=      0 NMMIF=      0
                NMic=       0 NMicF=      0.
                    Isotopes and Nuclear Properties:
 (Nuclear quadrupole moments (NQMom) in fm**2, nuclear magnetic moments (NMagM)
  in nuclear magnetons)

  Atom         1           2           3           4           5           6           7           8           9          10
 IAtWgt=          12          12          12          12          12          14           1           1           1           1
 AtmWgt=  12.0000000  12.0000000  12.0000000  12.0000000  12.0000000  14.0030740   1.0078250   1.0078250   1.0078250   1.0078250
 NucSpn=           0           0           0           0           0           2           1           1           1           1
 AtZEff=   0.0000000   0.0000000   0.0000000   0.0000000   0.0000000   0.0000000   0.0000000   0.0000000   0.0000000   0.0000000
 NQMom=    0.0000000   0.0000000   0.0000000   0.0000000   0.0000000   2.0440000   0.0000000   0.0000000   0.0000000   0.0000000
 NMagM=    0.0000000   0.0000000   0.0000000   0.0000000   0.0000000   0.4037610   2.7928460   2.7928460   2.7928460   2.7928460
 AtZNuc=   6.0000000   6.0000000   6.0000000   6.0000000   6.0000000   7.0000000   1.0000000   1.0000000   1.0000000   1.0000000

  Atom        11          12
 IAtWgt=          16           1
 AtmWgt=  15.9949146   1.0078250
 NucSpn=           0           1
 AtZEff=   0.0000000   0.0000000
 NQMom=    0.0000000   0.0000000
 NMagM=    0.0000000   2.7928460
 AtZNuc=   8.0000000   1.0000000
 Leave Link  101 at Fri Aug 27 21:27:24 2021, MaxMem= 17179869184 cpu:         7.6
 (Enter /public3/home/sc51754/softwares/g09e01/l103.exe)

 GradGradGradGradGradGradGradGradGradGradGradGradGradGradGradGradGradGrad
 Berny optimization.
 Initialization pass.
                           ----------------------------
                           !    Initial Parameters    !
                           ! (Angstroms and Degrees)  !
 --------------------------                            --------------------------
 ! Name  Definition              Value          Derivative Info.                !
 --------------------------------------------------------------------------------
 ! R1    R(1,2)                  1.3559         estimate D2E/DX2                !
 ! R2    R(1,6)                  1.3743         estimate D2E/DX2                !
 ! R3    R(1,7)                  1.0847         estimate D2E/DX2                !
 ! R4    R(2,3)                  1.4688         estimate D2E/DX2                !
 ! R5    R(2,8)                  1.0839         estimate D2E/DX2                !
 ! R6    R(3,4)                  1.4688         estimate D2E/DX2                !
 ! R7    R(3,11)                 1.2337         estimate D2E/DX2                !
 ! R8    R(4,5)                  1.3559         estimate D2E/DX2                !
 ! R9    R(4,9)                  1.0839         estimate D2E/DX2                !
 ! R10   R(5,6)                  1.3743         estimate D2E/DX2                !
 ! R11   R(5,10)                 1.0847         estimate D2E/DX2                !
 ! R12   R(6,12)                 1.0075         estimate D2E/DX2                !
 ! A1    A(2,1,6)              121.1639         estimate D2E/DX2                !
 ! A2    A(2,1,7)              123.267          estimate D2E/DX2                !
 ! A3    A(6,1,7)              115.5691         estimate D2E/DX2                !
 ! A4    A(1,2,3)              121.7645         estimate D2E/DX2                !
 ! A5    A(1,2,8)              120.2096         estimate D2E/DX2                !
 ! A6    A(3,2,8)              118.0259         estimate D2E/DX2                !
 ! A7    A(2,3,4)              113.5338         estimate D2E/DX2                !
 ! A8    A(2,3,11)             123.2331         estimate D2E/DX2                !
 ! A9    A(4,3,11)             123.2331         estimate D2E/DX2                !
 ! A10   A(3,4,5)              121.7645         estimate D2E/DX2                !
 ! A11   A(3,4,9)              118.0259         estimate D2E/DX2                !
 ! A12   A(5,4,9)              120.2096         estimate D2E/DX2                !
 ! A13   A(4,5,6)              121.1639         estimate D2E/DX2                !
 ! A14   A(4,5,10)             123.267          estimate D2E/DX2                !
 ! A15   A(6,5,10)             115.5691         estimate D2E/DX2                !
 ! A16   A(1,6,5)              120.6094         estimate D2E/DX2                !
 ! A17   A(1,6,12)             119.6953         estimate D2E/DX2                !
 ! A18   A(5,6,12)             119.6953         estimate D2E/DX2                !
 ! D1    D(6,1,2,3)             -0.0087         estimate D2E/DX2                !
 ! D2    D(6,1,2,8)            179.9852         estimate D2E/DX2                !
 ! D3    D(7,1,2,3)           -179.9904         estimate D2E/DX2                !
 ! D4    D(7,1,2,8)              0.0035         estimate D2E/DX2                !
 ! D5    D(2,1,6,5)             -0.0199         estimate D2E/DX2                !
 ! D6    D(2,1,6,12)           179.9596         estimate D2E/DX2                !
 ! D7    D(7,1,6,5)            179.9631         estimate D2E/DX2                !
 ! D8    D(7,1,6,12)            -0.0574         estimate D2E/DX2                !
 ! D9    D(1,2,3,4)              0.0339         estimate D2E/DX2                !
 ! D10   D(1,2,3,11)          -179.9797         estimate D2E/DX2                !
 ! D11   D(8,2,3,4)           -179.9602         estimate D2E/DX2                !
 ! D12   D(8,2,3,11)             0.0262         estimate D2E/DX2                !
 ! D13   D(2,3,4,5)             -0.0339         estimate D2E/DX2                !
 ! D14   D(2,3,4,9)            179.9602         estimate D2E/DX2                !
 ! D15   D(11,3,4,5)           179.9797         estimate D2E/DX2                !
 ! D16   D(11,3,4,9)            -0.0262         estimate D2E/DX2                !
 ! D17   D(3,4,5,6)              0.0087         estimate D2E/DX2                !
 ! D18   D(3,4,5,10)           179.9904         estimate D2E/DX2                !
 ! D19   D(9,4,5,6)           -179.9852         estimate D2E/DX2                !
 ! D20   D(9,4,5,10)            -0.0035         estimate D2E/DX2                !
 ! D21   D(4,5,6,1)              0.0199         estimate D2E/DX2                !
 ! D22   D(4,5,6,12)          -179.9596         estimate D2E/DX2                !
 ! D23   D(10,5,6,1)          -179.9631         estimate D2E/DX2                !
 ! D24   D(10,5,6,12)            0.0574         estimate D2E/DX2                !
 --------------------------------------------------------------------------------
 Trust Radius=3.00D-01 FncErr=1.00D-07 GrdErr=1.00D-06
 Number of steps in this run=     64 maximum allowed number of steps=    100.
 GradGradGradGradGradGradGradGradGradGradGradGradGradGradGradGradGradGrad

 Leave Link  103 at Fri Aug 27 21:27:24 2021, MaxMem= 17179869184 cpu:         0.2
 (Enter /public3/home/sc51754/softwares/g09e01/l202.exe)
                          Input orientation:                          
 ---------------------------------------------------------------------
 Center     Atomic      Atomic             Coordinates (Angstroms)
 Number     Number       Type             X           Y           Z
 ---------------------------------------------------------------------
      1          6           0       -0.000184   -1.048866    1.193818
      2          6           0       -0.000184    0.306549    1.228568
      3          6           0        0.000221    1.111516    0.000000
      4          6           0       -0.000184    0.306549   -1.228568
      5          6           0       -0.000184   -1.048866   -1.193818
      6          7           0        0.000018   -1.729678    0.000000
      7          1           0       -0.000630   -1.666925    2.085223
      8          1           0       -0.000587    0.827738    2.178925
      9          1           0       -0.000587    0.827738   -2.178925
     10          1           0       -0.000630   -1.666925   -2.085223
     11          8           0        0.000597    2.345248    0.000000
     12          1           0        0.000630   -2.737158    0.000000
 ---------------------------------------------------------------------
                    Distance matrix (angstroms):
                    1          2          3          4          5
     1  C    0.000000
     2  C    1.355860   0.000000
     3  C    2.468289   1.468792   0.000000
     4  C    2.775807   2.457136   1.468792   0.000000
     5  C    2.387636   2.775807   2.468289   1.355860   0.000000
     6  N    1.374302   2.378150   2.841194   2.378150   1.374302
     7  H    1.084712   2.151385   3.473887   3.856917   3.336781
     8  H    2.119452   1.083890   2.197327   3.447122   3.859668
     9  H    3.859668   3.447122   2.197327   1.083890   2.119452
    10  H    3.336781   3.856917   3.473887   2.151385   1.084712
    11  O    3.597946   2.380268   1.233732   2.380268   3.597946
    12  H    2.067736   3.282306   3.848674   3.282306   2.067736
                    6          7          8          9         10
     6  N    0.000000
     7  H    2.086167   0.000000
     8  H    3.359775   2.496422   0.000000
     9  H    3.359775   4.940273   4.357850   0.000000
    10  H    2.086167   4.170446   4.940273   2.496422   0.000000
    11  O    4.074926   4.521691   2.655288   2.655288   4.521691
    12  H    1.007480   2.343833   4.178062   4.178062   2.343833
                   11         12
    11  O    0.000000
    12  H    5.082406   0.000000
 Stoichiometry    C5H5NO
 Framework group  CS[SG(CHNO),X(C4H4)]
 Deg. of freedom    17
 Full point group                 CS      NOp   2
 Largest Abelian subgroup         CS      NOp   2
 Largest concise Abelian subgroup CS      NOp   2
                         Standard orientation:                         
 ---------------------------------------------------------------------
 Center     Atomic      Atomic             Coordinates (Angstroms)
 Number     Number       Type             X           Y           Z
 ---------------------------------------------------------------------
      1          6           0        0.000184    1.048866    1.193818
      2          6           0        0.000184   -0.306549    1.228568
      3          6           0       -0.000221   -1.111516   -0.000000
      4          6           0        0.000184   -0.306549   -1.228568
      5          6           0        0.000184    1.048866   -1.193818
      6          7           0       -0.000018    1.729678    0.000000
      7          1           0        0.000630    1.666925    2.085223
      8          1           0        0.000587   -0.827738    2.178925
      9          1           0        0.000587   -0.827738   -2.178925
     10          1           0        0.000630    1.666925   -2.085223
     11          8           0       -0.000597   -2.345248   -0.000000
     12          1           0       -0.000630    2.737158    0.000000
 ---------------------------------------------------------------------
 Rotational constants (GHZ):      5.6935111      2.6926956      1.8281082
 Leave Link  202 at Fri Aug 27 21:27:25 2021, MaxMem= 17179869184 cpu:         5.7
 (Enter /public3/home/sc51754/softwares/g09e01/l301.exe)
 General basis read from cards:  (5D, 7F)
 Centers:       7      8      9     10     12
 S 4 1.00
     Exponent=  7.5423000000D+01 Coefficients=  2.4065000000D-03
     Exponent=  1.1350000000D+01 Coefficients=  1.8487000000D-02
     Exponent=  2.5993000000D+00 Coefficients=  8.9742000000D-02
     Exponent=  7.3513000000D-01 Coefficients=  2.8111000000D-01
 S 1 1.00
     Exponent=  2.3167000000D-01 Coefficients=  1.0000000000D+00
 S 1 1.00
     Exponent=  7.4147000000D-02 Coefficients=  1.0000000000D+00
 P 1 1.00
     Exponent=  1.6000000000D+00 Coefficients=  1.0000000000D+00
 P 1 1.00
     Exponent=  4.5000000000D-01 Coefficients=  1.0000000000D+00
 D 1 1.00
     Exponent=  1.2500000000D+00 Coefficients=  1.0000000000D+00
 ****
 Centers:       1      2      3      4      5
 S 7 1.00
     Exponent=  7.8571000000D+03 Coefficients=  5.6825000000D-04
     Exponent=  1.1787000000D+03 Coefficients=  4.3915000000D-03
     Exponent=  2.6832000000D+02 Coefficients=  2.2504000000D-02
     Exponent=  7.5948000000D+01 Coefficients=  8.6653000000D-02
     Exponent=  2.4559000000D+01 Coefficients=  2.4405000000D-01
     Exponent=  8.6212000000D+00 Coefficients=  4.4148000000D-01
     Exponent=  3.1278000000D+00 Coefficients=  3.5332000000D-01
 S 7 1.00
     Exponent=  1.1787000000D+03 Coefficients= -5.9492000000D-07
     Exponent=  2.6832000000D+02 Coefficients= -6.2748000000D-05
     Exponent=  7.5948000000D+01 Coefficients= -7.5773000000D-04
     Exponent=  2.4559000000D+01 Coefficients= -7.3308000000D-03
     Exponent=  8.6212000000D+00 Coefficients= -3.8932000000D-02
     Exponent=  3.1278000000D+00 Coefficients= -8.8908000000D-02
     Exponent=  8.2202000000D-01 Coefficients=  2.1689000000D-01
 S 1 1.00
     Exponent=  3.3017000000D-01 Coefficients=  1.0000000000D+00
 S 1 1.00
     Exponent=  1.1463000000D-01 Coefficients=  1.0000000000D+00
 P 4 1.00
     Exponent=  3.3775000000D+01 Coefficients=  6.0294000000D-03
     Exponent=  7.6766000000D+00 Coefficients=  4.3228000000D-02
     Exponent=  2.2357000000D+00 Coefficients=  1.6301000000D-01
     Exponent=  7.6447000000D-01 Coefficients=  3.6504000000D-01
 P 1 1.00
     Exponent=  2.6232000000D-01 Coefficients=  1.0000000000D+00
 P 1 1.00
     Exponent=  8.4638000000D-02 Coefficients=  1.0000000000D+00
 D 1 1.00
     Exponent=  1.4000000000D+00 Coefficients=  1.0000000000D+00
 D 1 1.00
     Exponent=  4.5000000000D-01 Coefficients=  1.0000000000D+00
 F 1 1.00
     Exponent=  9.5000000000D-01 Coefficients=  1.0000000000D+00
 ****
 Centers:       6
 S 7 1.00
     Exponent=  1.1101000000D+04 Coefficients=  5.4570000000D-04
     Exponent=  1.6653000000D+03 Coefficients=  4.2181000000D-03
     Exponent=  3.7908000000D+02 Coefficients=  2.1645000000D-02
     Exponent=  1.0730000000D+02 Coefficients=  8.3776000000D-02
     Exponent=  3.4747000000D+01 Coefficients=  2.3881000000D-01
     Exponent=  1.2249000000D+01 Coefficients=  4.3994000000D-01
     Exponent=  4.4743000000D+00 Coefficients=  3.6364000000D-01
 S 7 1.00
     Exponent=  1.6653000000D+03 Coefficients= -1.5006000000D-06
     Exponent=  3.7908000000D+02 Coefficients= -5.8753000000D-05
     Exponent=  1.0730000000D+02 Coefficients= -7.7453000000D-04
     Exponent=  3.4747000000D+01 Coefficients= -7.2161000000D-03
     Exponent=  1.2249000000D+01 Coefficients= -3.9338000000D-02
     Exponent=  4.4743000000D+00 Coefficients= -9.0611000000D-02
     Exponent=  1.2404000000D+00 Coefficients=  1.9882000000D-01
 S 1 1.00
     Exponent=  4.8743000000D-01 Coefficients=  1.0000000000D+00
 S 1 1.00
     Exponent=  1.6484000000D-01 Coefficients=  1.0000000000D+00
 P 4 1.00
     Exponent=  4.7934000000D+01 Coefficients=  6.1706000000D-03
     Exponent=  1.0999000000D+01 Coefficients=  4.4260000000D-02
     Exponent=  3.2472000000D+00 Coefficients=  1.6825000000D-01
     Exponent=  1.1114000000D+00 Coefficients=  3.6848000000D-01
 P 1 1.00
     Exponent=  3.7988000000D-01 Coefficients=  1.0000000000D+00
 P 1 1.00
     Exponent=  1.2068000000D-01 Coefficients=  1.0000000000D+00
 D 1 1.00
     Exponent=  1.8000000000D+00 Coefficients=  1.0000000000D+00
 D 1 1.00
     Exponent=  5.5000000000D-01 Coefficients=  1.0000000000D+00
 F 1 1.00
     Exponent=  1.0200000000D+00 Coefficients=  1.0000000000D+00
 ****
 Centers:      11
 S 7 1.00
     Exponent=  1.4782000000D+04 Coefficients=  5.3519000000D-04
     Exponent=  2.2173000000D+03 Coefficients=  4.1375000000D-03
     Exponent=  5.0474000000D+02 Coefficients=  2.1245000000D-02
     Exponent=  1.4287000000D+02 Coefficients=  8.2453000000D-02
     Exponent=  4.6300000000D+01 Coefficients=  2.3671000000D-01
     Exponent=  1.6337000000D+01 Coefficients=  4.4039000000D-01
     Exponent=  5.9828000000D+00 Coefficients=  3.6465000000D-01
 S 7 1.00
     Exponent=  2.2173000000D+03 Coefficients= -1.9275000000D-06
     Exponent=  5.0474000000D+02 Coefficients= -5.7964000000D-05
     Exponent=  1.4287000000D+02 Coefficients= -7.9494000000D-04
     Exponent=  4.6300000000D+01 Coefficients= -7.3125000000D-03
     Exponent=  1.6337000000D+01 Coefficients= -4.0574000000D-02
     Exponent=  5.9828000000D+00 Coefficients= -9.1594000000D-02
     Exponent=  1.6718000000D+00 Coefficients=  2.0940000000D-01
 S 1 1.00
     Exponent=  6.4662000000D-01 Coefficients=  1.0000000000D+00
 S 1 1.00
     Exponent=  2.1669000000D-01 Coefficients=  1.0000000000D+00
 P 4 1.00
     Exponent=  6.0424000000D+01 Coefficients=  6.8949000000D-03
     Exponent=  1.3935000000D+01 Coefficients=  4.9005000000D-02
     Exponent=  4.1531000000D+00 Coefficients=  1.8255000000D-01
     Exponent=  1.4158000000D+00 Coefficients=  3.7633000000D-01
 P 1 1.00
     Exponent=  4.7549000000D-01 Coefficients=  1.0000000000D+00
 P 1 1.00
     Exponent=  1.4529000000D-01 Coefficients=  1.0000000000D+00
 D 1 1.00
     Exponent=  2.2000000000D+00 Coefficients=  1.0000000000D+00
 D 1 1.00
     Exponent=  6.5000000000D-01 Coefficients=  1.0000000000D+00
 F 1 1.00
     Exponent=  1.1000000000D+00 Coefficients=  1.0000000000D+00
 ****
 Ernie: Thresh=  0.10000D-02 Tol=  0.10000D-05 Strict=F.
 Ernie:  7 primitive shells out of 220 were deleted.
 There are   183 symmetry adapted cartesian basis functions of A'  symmetry.
 There are   137 symmetry adapted cartesian basis functions of A"  symmetry.
 There are   158 symmetry adapted basis functions of A'  symmetry.
 There are   122 symmetry adapted basis functions of A"  symmetry.
   280 basis functions,   475 primitive gaussians,   320 cartesian basis functions
    25 alpha electrons       25 beta electrons
       nuclear repulsion energy       273.2804388411 Hartrees.
 IExCor= 4235 DFT=T Ex+Corr=M06 ExCW=0 ScaHFX=  0.270000
 ScaDFX=  1.000000  1.000000  1.000000  1.000000 ScalE2=  1.000000  1.000000
 IRadAn=      0 IRanWt=     -1 IRanGd=            0 ICorTp=0 IEmpDi=  4
 NAtoms=   12 NActive=   12 NUniq=    8 SFac= 2.25D+00 NAtFMM=   60 NAOKFM=F Big=F
 Integral buffers will be    131072 words long.
 Raffenetti 2 integral format.
 Two-electron integral symmetry is turned on.
 Leave Link  301 at Fri Aug 27 21:27:25 2021, MaxMem= 17179869184 cpu:         2.0
 (Enter /public3/home/sc51754/softwares/g09e01/l302.exe)
 NPDir=0 NMtPBC=     1 NCelOv=     1 NCel=       1 NClECP=     1 NCelD=      1
         NCelK=      1 NCelE2=     1 NClLst=     1 CellRange=     0.0.
 One-electron integrals computed using PRISM.
 One-electron integral symmetry used in STVInt
 NBasis=   280 RedAO= T EigKep=  1.83D-04  NBF=   158   122
 NBsUse=   280 1.00D-06 EigRej= -1.00D+00 NBFU=   158   122
 Precomputing XC quadrature grid using
 IXCGrd= 4 IRadAn=           0 IRanWt=          -1 IRanGd=           0 AccXCQ= 0.00D+00.
 Generated NRdTot=       0 NPtTot=           0 NUsed=           0 NTot=          32
 NSgBfM=   320   320   320   320   320 MxSgAt=    12 MxSgA2=    12.
 Leave Link  302 at Fri Aug 27 21:27:25 2021, MaxMem= 17179869184 cpu:        37.4
 (Enter /public3/home/sc51754/softwares/g09e01/l303.exe)
 DipDrv:  MaxL=1.
 Leave Link  303 at Fri Aug 27 21:27:26 2021, MaxMem= 17179869184 cpu:        10.3
 (Enter /public3/home/sc51754/softwares/g09e01/l401.exe)
 ExpMin= 7.41D-02 ExpMax= 1.48D+04 ExpMxC= 5.05D+02 IAcc=2 IRadAn=         4 AccDes= 0.00D+00
 Harris functional with IExCor= 1009 and IRadAn=       4 diagonalized for initial guess.
 HarFok:  IExCor= 1009 AccDes= 0.00D+00 IRadAn=         4 IDoV= 1 UseB2=F ITyADJ=14
 ICtDFT=  3500011 ScaDFX=  1.000000  1.000000  1.000000  1.000000
 FoFCou: FMM=F IPFlag=           0 FMFlag=      100000 FMFlg1=           0
         NFxFlg=           0 DoJE=T BraDBF=F KetDBF=T FulRan=T
         wScrn=  0.000000 ICntrl=     500 IOpCl=  0 I1Cent=   200000004 NGrid=           0
         NMat0=    1 NMatS0=      1 NMatT0=    0 NMatD0=    1 NMtDS0=    0 NMtDT0=    0
 Petite list used in FoFCou.
 Harris En= -323.373742033016    
 JPrj=0 DoOrth=F DoCkMO=F.
 Initial guess orbital symmetries:
       Occupied  (A') (A') (A") (A') (A") (A') (A') (A') (A') (A')
                 (A") (A") (A') (A') (A") (A') (A') (A") (A') (A')
                 (A") (A') (A") (A") (A')
       Virtual   (A') (A") (A') (A') (A") (A') (A') (A") (A') (A')
                 (A") (A') (A') (A") (A") (A") (A') (A') (A") (A')
                 (A") (A') (A") (A') (A') (A') (A") (A') (A") (A')
                 (A') (A") (A') (A') (A') (A") (A') (A") (A") (A')
                 (A") (A') (A') (A') (A") (A") (A') (A") (A") (A')
                 (A') (A") (A") (A') (A') (A') (A') (A") (A') (A')
                 (A') (A") (A') (A') (A") (A") (A') (A') (A") (A')
                 (A") (A") (A") (A') (A") (A') (A') (A") (A') (A")
                 (A') (A') (A") (A") (A') (A') (A') (A') (A") (A')
                 (A") (A") (A') (A") (A") (A') (A') (A") (A') (A')
                 (A") (A') (A") (A") (A') (A") (A') (A') (A") (A')
                 (A') (A") (A') (A") (A") (A') (A') (A') (A") (A")
                 (A") (A') (A') (A") (A') (A") (A') (A") (A") (A')
                 (A') (A") (A') (A") (A') (A') (A') (A") (A') (A')
                 (A") (A") (A") (A') (A") (A') (A') (A') (A') (A")
                 (A') (A") (A') (A') (A") (A") (A') (A") (A") (A')
                 (A') (A") (A') (A") (A') (A') (A") (A") (A") (A")
                 (A') (A') (A") (A') (A') (A") (A") (A') (A') (A')
                 (A") (A') (A") (A') (A") (A') (A') (A") (A') (A")
                 (A") (A") (A') (A') (A") (A') (A") (A') (A") (A')
                 (A') (A') (A') (A") (A") (A") (A") (A') (A') (A')
                 (A') (A') (A") (A") (A") (A') (A") (A') (A") (A')
                 (A') (A") (A") (A') (A") (A") (A') (A") (A') (A")
                 (A') (A') (A") (A') (A') (A') (A") (A") (A") (A')
                 (A') (A') (A") (A') (A") (A') (A') (A") (A') (A')
                 (A") (A') (A") (A') (A')
 The electronic state of the initial guess is 1-A'.
 Leave Link  401 at Fri Aug 27 21:27:27 2021, MaxMem= 17179869184 cpu:        41.4
 (Enter /public3/home/sc51754/softwares/g09e01/l502.exe)
 Closed shell SCF:
 Using DIIS extrapolation, IDIIS=  1040.
 Integral symmetry usage will be decided dynamically.
 Keep R1 ints in memory in symmetry-blocked form, NReq=1161351758.
 IVT=      348938 IEndB=      348938 NGot= 17179869184 MDV= 16792355177
 LenX= 16792355177 LenY= 16792252336
 Requested convergence on RMS density matrix=1.00D-08 within 128 cycles.
 Requested convergence on MAX density matrix=1.00D-06.
 Requested convergence on             energy=1.00D-06.
 No special actions if energy rises.
 FoFCou: FMM=F IPFlag=           0 FMFlag=           0 FMFlg1=           0
         NFxFlg=           0 DoJE=F BraDBF=F KetDBF=F FulRan=T
         wScrn=  0.000000 ICntrl=     600 IOpCl=  0 I1Cent=           0 NGrid=           0
         NMat0=    1 NMatS0=  39340 NMatT0=    0 NMatD0=    1 NMtDS0=    0 NMtDT0=    0
 Petite list used in FoFCou.
 Integral accuracy reduced to 1.0D-05 until final iterations.

 Cycle   1  Pass 0  IDiag  1:
 E= -323.240495212273    
 DIIS: error= 2.99D-02 at cycle   1 NSaved=   1.
 NSaved= 1 IEnMin= 1 EnMin= -323.240495212273     IErMin= 1 ErrMin= 2.99D-02
 ErrMax= 2.99D-02  0.00D+00 EMaxC= 1.00D-01 BMatC= 1.88D-01 BMatP= 1.88D-01
 IDIUse=3 WtCom= 7.01D-01 WtEn= 2.99D-01
 Coeff-Com:  0.100D+01
 Coeff-En:   0.100D+01
 Coeff:      0.100D+01
 Gap=     0.075 Goal=   None    Shift=    0.000
 GapD=    0.075 DampG=0.500 DampE=0.500 DampFc=0.2500 IDamp=-1.
 Damping current iteration by 2.50D-01
 RMSDP=3.93D-02 MaxDP=4.49D+00              OVMax= 5.20D-01

 Cycle   2  Pass 0  IDiag  1:
 E= -323.161537481257     Delta-E=        0.078957731016 Rises=F Damp=T
 DIIS: error= 1.07D-02 at cycle   2 NSaved=   2.
 NSaved= 2 IEnMin= 1 EnMin= -323.240495212273     IErMin= 2 ErrMin= 1.07D-02
 ErrMax= 1.07D-02  0.00D+00 EMaxC= 1.00D-01 BMatC= 4.01D-02 BMatP= 1.88D-01
 IDIUse=3 WtCom= 8.93D-01 WtEn= 1.07D-01
 Coeff-Com:  0.865D-01 0.914D+00
 Coeff-En:   0.696D+00 0.304D+00
 Coeff:      0.152D+00 0.848D+00
 Gap=     0.195 Goal=   None    Shift=    0.000
 RMSDP=9.78D-03 MaxDP=1.12D+00 DE= 7.90D-02 OVMax= 4.59D-01

 Cycle   3  Pass 0  IDiag  1:
 E= -323.287211435324     Delta-E=       -0.125673954067 Rises=F Damp=F
 DIIS: error= 2.76D-02 at cycle   3 NSaved=   3.
 NSaved= 3 IEnMin= 3 EnMin= -323.287211435324     IErMin= 2 ErrMin= 1.07D-02
 ErrMax= 2.76D-02  0.00D+00 EMaxC= 1.00D-01 BMatC= 1.21D-01 BMatP= 4.01D-02
 IDIUse=2 WtCom= 0.00D+00 WtEn= 1.00D+00
 EnCoef did     2 forward-backward iterations
 Coeff-En:   0.106D+00 0.217D+00 0.677D+00
 Coeff:      0.106D+00 0.217D+00 0.677D+00
 Gap=     0.189 Goal=   None    Shift=    0.000
 RMSDP=3.49D-03 MaxDP=1.15D-01 DE=-1.26D-01 OVMax= 4.52D-01

 Cycle   4  Pass 0  IDiag  1:
 E= -323.156670541888     Delta-E=        0.130540893435 Rises=F Damp=F
 DIIS: error= 3.99D-02 at cycle   4 NSaved=   4.
 NSaved= 4 IEnMin= 3 EnMin= -323.287211435324     IErMin= 2 ErrMin= 1.07D-02
 ErrMax= 3.99D-02  0.00D+00 EMaxC= 1.00D-01 BMatC= 2.87D-01 BMatP= 4.01D-02
 IDIUse=2 WtCom= 0.00D+00 WtEn= 1.00D+00
 Coeff-En:   0.000D+00 0.000D+00 0.627D+00 0.373D+00
 Coeff:      0.000D+00 0.000D+00 0.627D+00 0.373D+00
 Gap=     0.199 Goal=   None    Shift=    0.000
 RMSDP=2.40D-03 MaxDP=8.73D-02 DE= 1.31D-01 OVMax= 2.38D-01

 Cycle   5  Pass 0  IDiag  1:
 E= -323.411824206313     Delta-E=       -0.255153664424 Rises=F Damp=F
 DIIS: error= 5.75D-03 at cycle   5 NSaved=   5.
 NSaved= 5 IEnMin= 5 EnMin= -323.411824206313     IErMin= 5 ErrMin= 5.75D-03
 ErrMax= 5.75D-03  0.00D+00 EMaxC= 1.00D-01 BMatC= 8.49D-03 BMatP= 4.01D-02
 IDIUse=3 WtCom= 9.43D-01 WtEn= 5.75D-02
 Coeff-Com: -0.108D+00 0.214D+00 0.283D+00 0.479D-01 0.563D+00
 Coeff-En:   0.000D+00 0.000D+00 0.000D+00 0.000D+00 0.100D+01
 Coeff:     -0.101D+00 0.201D+00 0.267D+00 0.451D-01 0.588D+00
 Gap=     0.229 Goal=   None    Shift=    0.000
 RMSDP=4.81D-04 MaxDP=2.05D-02 DE=-2.55D-01 OVMax= 6.14D-02

 Cycle   6  Pass 0  IDiag  1:
 E= -323.416292966336     Delta-E=       -0.004468760023 Rises=F Damp=F
 DIIS: error= 4.17D-03 at cycle   6 NSaved=   6.
 NSaved= 6 IEnMin= 6 EnMin= -323.416292966336     IErMin= 6 ErrMin= 4.17D-03
 ErrMax= 4.17D-03  0.00D+00 EMaxC= 1.00D-01 BMatC= 2.84D-03 BMatP= 8.49D-03
 IDIUse=3 WtCom= 9.58D-01 WtEn= 4.17D-02
 Coeff-Com: -0.111D+00 0.133D+00 0.372D-01-0.193D-01 0.303D+00 0.658D+00
 Coeff-En:   0.000D+00 0.000D+00 0.000D+00 0.000D+00 0.258D+00 0.742D+00
 Coeff:     -0.107D+00 0.127D+00 0.357D-01-0.185D-01 0.301D+00 0.661D+00
 Gap=     0.222 Goal=   None    Shift=    0.000
 RMSDP=1.35D-04 MaxDP=5.95D-03 DE=-4.47D-03 OVMax= 2.01D-02

 Cycle   7  Pass 0  IDiag  1:
 E= -323.419025766728     Delta-E=       -0.002732800392 Rises=F Damp=F
 DIIS: error= 2.37D-03 at cycle   7 NSaved=   7.
 NSaved= 7 IEnMin= 7 EnMin= -323.419025766728     IErMin= 7 ErrMin= 2.37D-03
 ErrMax= 2.37D-03  0.00D+00 EMaxC= 1.00D-01 BMatC= 7.13D-04 BMatP= 2.84D-03
 IDIUse=3 WtCom= 9.76D-01 WtEn= 2.37D-02
 Coeff-Com: -0.684D-01 0.785D-01-0.497D-02-0.638D-02 0.120D+00 0.284D+00
 Coeff-Com:  0.597D+00
 Coeff-En:   0.000D+00 0.000D+00 0.000D+00 0.000D+00 0.000D+00 0.000D+00
 Coeff-En:   0.100D+01
 Coeff:     -0.668D-01 0.766D-01-0.485D-02-0.623D-02 0.117D+00 0.278D+00
 Coeff:      0.606D+00
 Gap=     0.219 Goal=   None    Shift=    0.000
 RMSDP=5.57D-05 MaxDP=2.15D-03 DE=-2.73D-03 OVMax= 7.49D-03

 Cycle   8  Pass 0  IDiag  1:
 E= -323.419533236288     Delta-E=       -0.000507469560 Rises=F Damp=F
 DIIS: error= 1.37D-03 at cycle   8 NSaved=   8.
 NSaved= 8 IEnMin= 8 EnMin= -323.419533236288     IErMin= 8 ErrMin= 1.37D-03
 ErrMax= 1.37D-03  0.00D+00 EMaxC= 1.00D-01 BMatC= 2.38D-04 BMatP= 7.13D-04
 IDIUse=3 WtCom= 9.86D-01 WtEn= 1.37D-02
 Coeff-Com: -0.254D-01 0.345D-01-0.122D-01 0.335D-02-0.565D-02-0.469D-01
 Coeff-Com:  0.253D+00 0.800D+00
 Coeff-En:   0.000D+00 0.000D+00 0.000D+00 0.000D+00 0.000D+00 0.000D+00
 Coeff-En:   0.000D+00 0.100D+01
 Coeff:     -0.251D-01 0.340D-01-0.120D-01 0.331D-02-0.557D-02-0.463D-01
 Coeff:      0.249D+00 0.802D+00
 Gap=     0.216 Goal=   None    Shift=    0.000
 RMSDP=4.92D-05 MaxDP=1.17D-03 DE=-5.07D-04 OVMax= 8.23D-03

 Cycle   9  Pass 0  IDiag  1:
 E= -323.419797362904     Delta-E=       -0.000264126615 Rises=F Damp=F
 DIIS: error= 5.48D-04 at cycle   9 NSaved=   9.
 NSaved= 9 IEnMin= 9 EnMin= -323.419797362904     IErMin= 9 ErrMin= 5.48D-04
 ErrMax= 5.48D-04  0.00D+00 EMaxC= 1.00D-01 BMatC= 4.50D-05 BMatP= 2.38D-04
 IDIUse=3 WtCom= 9.95D-01 WtEn= 5.48D-03
 Coeff-Com:  0.209D-03 0.241D-02-0.264D-02 0.271D-02-0.235D-01-0.109D+00
 Coeff-Com: -0.203D+00 0.482D+00 0.851D+00
 Coeff-En:   0.000D+00 0.000D+00 0.000D+00 0.000D+00 0.000D+00 0.000D+00
 Coeff-En:   0.000D+00 0.000D+00 0.100D+01
 Coeff:      0.208D-03 0.239D-02-0.263D-02 0.269D-02-0.233D-01-0.109D+00
 Coeff:     -0.202D+00 0.479D+00 0.852D+00
 Gap=     0.214 Goal=   None    Shift=    0.000
 RMSDP=3.00D-05 MaxDP=1.20D-03 DE=-2.64D-04 OVMax= 4.40D-03

 Cycle  10  Pass 0  IDiag  1:
 E= -323.419844605479     Delta-E=       -0.000047242576 Rises=F Damp=F
 DIIS: error= 6.90D-05 at cycle  10 NSaved=  10.
 NSaved=10 IEnMin=10 EnMin= -323.419844605479     IErMin=10 ErrMin= 6.90D-05
 ErrMax= 6.90D-05  0.00D+00 EMaxC= 1.00D-01 BMatC= 1.42D-06 BMatP= 4.50D-05
 IDIUse=1 WtCom= 1.00D+00 WtEn= 0.00D+00
 Coeff-Com:  0.498D-03 0.111D-02 0.105D-02 0.546D-03-0.597D-02-0.457D-01
 Coeff-Com: -0.135D+00 0.178D+00 0.464D+00 0.542D+00
 Coeff:      0.498D-03 0.111D-02 0.105D-02 0.546D-03-0.597D-02-0.457D-01
 Coeff:     -0.135D+00 0.178D+00 0.464D+00 0.542D+00
 Gap=     0.214 Goal=   None    Shift=    0.000
 RMSDP=3.28D-06 MaxDP=2.24D-04 DE=-4.72D-05 OVMax= 3.04D-04

 Initial convergence to 1.0D-05 achieved.  Increase integral accuracy.
 Cycle  11  Pass 1  IDiag  1:
 E= -323.420295513191     Delta-E=       -0.000450907712 Rises=F Damp=F
 DIIS: error= 3.61D-04 at cycle   1 NSaved=   1.
 NSaved= 1 IEnMin= 1 EnMin= -323.420295513191     IErMin= 1 ErrMin= 3.61D-04
 ErrMax= 3.61D-04  0.00D+00 EMaxC= 1.00D-01 BMatC= 6.99D-05 BMatP= 6.99D-05
 IDIUse=3 WtCom= 9.96D-01 WtEn= 3.61D-03
 Coeff-Com:  0.100D+01
 Coeff-En:   0.100D+01
 Coeff:      0.100D+01
 Gap=     0.215 Goal=   None    Shift=    0.000
 RMSDP=3.28D-06 MaxDP=2.24D-04 DE=-4.51D-04 OVMax= 9.60D-04

 Cycle  12  Pass 1  IDiag  1:
 E= -323.420325862053     Delta-E=       -0.000030348862 Rises=F Damp=F
 DIIS: error= 9.95D-05 at cycle   2 NSaved=   2.
 NSaved= 2 IEnMin= 2 EnMin= -323.420325862053     IErMin= 2 ErrMin= 9.95D-05
 ErrMax= 9.95D-05  0.00D+00 EMaxC= 1.00D-01 BMatC= 2.12D-06 BMatP= 6.99D-05
 IDIUse=1 WtCom= 1.00D+00 WtEn= 0.00D+00
 Coeff-Com:  0.911D-01 0.909D+00
 Coeff:      0.911D-01 0.909D+00
 Gap=     0.215 Goal=   None    Shift=    0.000
 RMSDP=6.85D-06 MaxDP=1.59D-04 DE=-3.03D-05 OVMax= 3.61D-04

 Cycle  13  Pass 1  IDiag  1:
 E= -323.420326578712     Delta-E=       -0.000000716659 Rises=F Damp=F
 DIIS: error= 5.72D-05 at cycle   3 NSaved=   3.
 NSaved= 3 IEnMin= 3 EnMin= -323.420326578712     IErMin= 3 ErrMin= 5.72D-05
 ErrMax= 5.72D-05  0.00D+00 EMaxC= 1.00D-01 BMatC= 5.60D-07 BMatP= 2.12D-06
 IDIUse=1 WtCom= 1.00D+00 WtEn= 0.00D+00
 Coeff-Com:  0.138D-01 0.330D+00 0.657D+00
 Coeff:      0.138D-01 0.330D+00 0.657D+00
 Gap=     0.215 Goal=   None    Shift=    0.000
 RMSDP=3.06D-06 MaxDP=1.19D-04 DE=-7.17D-07 OVMax= 1.85D-04

 Cycle  14  Pass 1  IDiag  1:
 E= -323.420327013364     Delta-E=       -0.000000434651 Rises=F Damp=F
 DIIS: error= 2.47D-05 at cycle   4 NSaved=   4.
 NSaved= 4 IEnMin= 4 EnMin= -323.420327013364     IErMin= 4 ErrMin= 2.47D-05
 ErrMax= 2.47D-05  0.00D+00 EMaxC= 1.00D-01 BMatC= 9.93D-08 BMatP= 5.60D-07
 IDIUse=1 WtCom= 1.00D+00 WtEn= 0.00D+00
 Coeff-Com: -0.320D-02 0.540D-01 0.316D+00 0.634D+00
 Coeff:     -0.320D-02 0.540D-01 0.316D+00 0.634D+00
 Gap=     0.215 Goal=   None    Shift=    0.000
 RMSDP=9.68D-07 MaxDP=3.94D-05 DE=-4.35D-07 OVMax= 8.58D-05

 Cycle  15  Pass 1  IDiag  1:
 E= -323.420327090246     Delta-E=       -0.000000076883 Rises=F Damp=F
 DIIS: error= 1.05D-05 at cycle   5 NSaved=   5.
 NSaved= 5 IEnMin= 5 EnMin= -323.420327090246     IErMin= 5 ErrMin= 1.05D-05
 ErrMax= 1.05D-05  0.00D+00 EMaxC= 1.00D-01 BMatC= 1.84D-08 BMatP= 9.93D-08
 IDIUse=1 WtCom= 1.00D+00 WtEn= 0.00D+00
 Coeff-Com: -0.292D-02 0.142D-01 0.161D+00 0.390D+00 0.438D+00
 Coeff:     -0.292D-02 0.142D-01 0.161D+00 0.390D+00 0.438D+00
 Gap=     0.215 Goal=   None    Shift=    0.000
 RMSDP=4.65D-07 MaxDP=2.23D-05 DE=-7.69D-08 OVMax= 4.06D-05

 Cycle  16  Pass 1  IDiag  1:
 E= -323.420327102782     Delta-E=       -0.000000012536 Rises=F Damp=F
 DIIS: error= 2.47D-06 at cycle   6 NSaved=   6.
 NSaved= 6 IEnMin= 6 EnMin= -323.420327102782     IErMin= 6 ErrMin= 2.47D-06
 ErrMax= 2.47D-06  0.00D+00 EMaxC= 1.00D-01 BMatC= 1.11D-09 BMatP= 1.84D-08
 IDIUse=1 WtCom= 1.00D+00 WtEn= 0.00D+00
 Coeff-Com: -0.802D-03-0.287D-02 0.212D-01 0.738D-01 0.215D+00 0.693D+00
 Coeff:     -0.802D-03-0.287D-02 0.212D-01 0.738D-01 0.215D+00 0.693D+00
 Gap=     0.215 Goal=   None    Shift=    0.000
 RMSDP=1.31D-07 MaxDP=6.47D-06 DE=-1.25D-08 OVMax= 1.87D-05

 Cycle  17  Pass 1  IDiag  1:
 E= -323.420327103373     Delta-E=       -0.000000000591 Rises=F Damp=F
 DIIS: error= 8.82D-07 at cycle   7 NSaved=   7.
 NSaved= 7 IEnMin= 7 EnMin= -323.420327103373     IErMin= 7 ErrMin= 8.82D-07
 ErrMax= 8.82D-07  0.00D+00 EMaxC= 1.00D-01 BMatC= 2.80D-10 BMatP= 1.11D-09
 IDIUse=1 WtCom= 1.00D+00 WtEn= 0.00D+00
 Coeff-Com: -0.196D-03-0.341D-02-0.495D-02 0.170D-02 0.821D-01 0.436D+00
 Coeff-Com:  0.489D+00
 Coeff:     -0.196D-03-0.341D-02-0.495D-02 0.170D-02 0.821D-01 0.436D+00
 Coeff:      0.489D+00
 Gap=     0.215 Goal=   None    Shift=    0.000
 RMSDP=5.65D-08 MaxDP=2.46D-06 DE=-5.91D-10 OVMax= 6.60D-06

 Cycle  18  Pass 1  IDiag  1:
 E= -323.420327103629     Delta-E=       -0.000000000256 Rises=F Damp=F
 DIIS: error= 2.41D-07 at cycle   8 NSaved=   8.
 NSaved= 8 IEnMin= 8 EnMin= -323.420327103629     IErMin= 8 ErrMin= 2.41D-07
 ErrMax= 2.41D-07  0.00D+00 EMaxC= 1.00D-01 BMatC= 1.31D-11 BMatP= 2.80D-10
 IDIUse=1 WtCom= 1.00D+00 WtEn= 0.00D+00
 Coeff-Com: -0.471D-05-0.136D-02-0.482D-02-0.755D-02 0.180D-01 0.147D+00
 Coeff-Com:  0.222D+00 0.627D+00
 Coeff:     -0.471D-05-0.136D-02-0.482D-02-0.755D-02 0.180D-01 0.147D+00
 Coeff:      0.222D+00 0.627D+00
 Gap=     0.215 Goal=   None    Shift=    0.000
 RMSDP=1.50D-08 MaxDP=7.06D-07 DE=-2.56D-10 OVMax= 2.69D-06

 Cycle  19  Pass 1  IDiag  1:
 E= -323.420327103644     Delta-E=       -0.000000000015 Rises=F Damp=F
 DIIS: error= 1.83D-07 at cycle   9 NSaved=   9.
 NSaved= 9 IEnMin= 9 EnMin= -323.420327103644     IErMin= 9 ErrMin= 1.83D-07
 ErrMax= 1.83D-07  0.00D+00 EMaxC= 1.00D-01 BMatC= 6.32D-12 BMatP= 1.31D-11
 IDIUse=1 WtCom= 1.00D+00 WtEn= 0.00D+00
 Coeff-Com:  0.334D-04-0.196D-03-0.218D-02-0.537D-02-0.534D-02 0.728D-02
 Coeff-Com:  0.447D-01 0.434D+00 0.527D+00
 Coeff:      0.334D-04-0.196D-03-0.218D-02-0.537D-02-0.534D-02 0.728D-02
 Coeff:      0.447D-01 0.434D+00 0.527D+00
 Gap=     0.215 Goal=   None    Shift=    0.000
 RMSDP=7.17D-09 MaxDP=3.58D-07 DE=-1.51D-11 OVMax= 9.88D-07

 SCF Done:  E(RM06) =  -323.420327104     A.U. after   19 cycles
            NFock= 19  Conv=0.72D-08     -V/T= 2.0037
 KE= 3.222258468508D+02 PE=-1.301769907336D+03 EE= 3.828432945404D+02
 Leave Link  502 at Fri Aug 27 21:27:34 2021, MaxMem= 17179869184 cpu:       262.9
 (Enter /public3/home/sc51754/softwares/g09e01/l601.exe)
 Copying SCF densities to generalized density rwf, IOpCl= 0 IROHF=0.

 **********************************************************************

            Population analysis using the SCF density.

 **********************************************************************

 Orbital symmetries:
       Occupied  (A') (A') (A') (A") (A') (A") (A') (A') (A') (A')
                 (A") (A") (A') (A') (A") (A') (A") (A') (A') (A')
                 (A") (A') (A") (A") (A')
       Virtual   (A') (A') (A") (A") (A') (A") (A') (A') (A') (A")
                 (A') (A') (A') (A") (A") (A') (A") (A') (A") (A')
                 (A") (A') (A') (A") (A') (A') (A") (A') (A") (A')
                 (A') (A") (A') (A') (A') (A") (A') (A") (A") (A')
                 (A") (A') (A") (A') (A") (A') (A') (A") (A") (A')
                 (A') (A") (A') (A") (A') (A') (A') (A") (A') (A')
                 (A') (A") (A') (A") (A") (A') (A') (A") (A') (A')
                 (A") (A') (A") (A") (A") (A') (A') (A") (A") (A")
                 (A') (A') (A') (A") (A') (A') (A') (A") (A') (A')
                 (A") (A") (A') (A") (A') (A") (A") (A') (A') (A')
                 (A") (A") (A') (A") (A") (A') (A') (A") (A') (A')
                 (A") (A') (A') (A") (A') (A") (A') (A') (A") (A")
                 (A") (A') (A') (A") (A") (A') (A") (A') (A') (A')
                 (A") (A") (A') (A') (A") (A') (A') (A") (A') (A")
                 (A') (A") (A') (A") (A") (A') (A') (A') (A') (A")
                 (A') (A') (A') (A") (A") (A') (A') (A") (A") (A")
                 (A') (A") (A') (A") (A') (A") (A") (A') (A") (A')
                 (A") (A') (A") (A') (A') (A') (A") (A") (A') (A")
                 (A') (A') (A") (A') (A") (A') (A") (A') (A') (A")
                 (A") (A") (A') (A") (A') (A') (A') (A') (A") (A")
                 (A') (A') (A") (A") (A') (A") (A') (A') (A") (A')
                 (A') (A") (A") (A') (A") (A') (A') (A") (A") (A")
                 (A') (A') (A") (A") (A') (A") (A") (A') (A') (A')
                 (A") (A') (A") (A') (A') (A") (A') (A") (A") (A')
                 (A') (A") (A') (A') (A') (A") (A') (A") (A') (A')
                 (A") (A') (A") (A') (A')
 The electronic state is 1-A'.
 Alpha  occ. eigenvalues --  -19.14925 -14.46045 -10.30624 -10.30509 -10.30507
 Alpha  occ. eigenvalues --  -10.24270 -10.24269  -1.02149  -1.00723  -0.80379
 Alpha  occ. eigenvalues --   -0.79869  -0.66101  -0.63874  -0.60203  -0.52037
 Alpha  occ. eigenvalues --   -0.49158  -0.46817  -0.45555  -0.45519  -0.39851
 Alpha  occ. eigenvalues --   -0.39285  -0.38153  -0.30283  -0.24479  -0.24376
 Alpha virt. eigenvalues --   -0.02916  -0.02200  -0.02093   0.00531   0.02980
 Alpha virt. eigenvalues --    0.04514   0.05136   0.12187   0.12806   0.13794
 Alpha virt. eigenvalues --    0.14909   0.16378   0.16655   0.18707   0.19405
 Alpha virt. eigenvalues --    0.21073   0.21800   0.23055   0.24848   0.25473
 Alpha virt. eigenvalues --    0.26800   0.28059   0.28612   0.28868   0.29608
 Alpha virt. eigenvalues --    0.31626   0.31843   0.34474   0.35277   0.38770
 Alpha virt. eigenvalues --    0.40300   0.42716   0.43480   0.43764   0.47659
 Alpha virt. eigenvalues --    0.48387   0.48854   0.52096   0.52846   0.54528
 Alpha virt. eigenvalues --    0.57173   0.57986   0.61886   0.63807   0.66237
 Alpha virt. eigenvalues --    0.67277   0.70406   0.73709   0.78196   0.78198
 Alpha virt. eigenvalues --    0.79211   0.83350   0.88097   0.88331   0.88563
 Alpha virt. eigenvalues --    0.92737   0.95530   0.95737   0.95890   1.04299
 Alpha virt. eigenvalues --    1.05085   1.06519   1.10184   1.10893   1.11773
 Alpha virt. eigenvalues --    1.12507   1.13546   1.16698   1.18487   1.20224
 Alpha virt. eigenvalues --    1.20364   1.23431   1.23610   1.27619   1.31961
 Alpha virt. eigenvalues --    1.32352   1.32628   1.39827   1.41121   1.42099
 Alpha virt. eigenvalues --    1.42827   1.42884   1.43644   1.45636   1.53080
 Alpha virt. eigenvalues --    1.54413   1.54757   1.60500   1.61073   1.61174
 Alpha virt. eigenvalues --    1.63831   1.64119   1.69176   1.75018   1.75463
 Alpha virt. eigenvalues --    1.77254   1.78716   1.79243   1.81725   1.86065
 Alpha virt. eigenvalues --    1.88403   1.91738   1.92226   1.98326   2.02244
 Alpha virt. eigenvalues --    2.05335   2.06969   2.09745   2.10215   2.13156
 Alpha virt. eigenvalues --    2.15160   2.18467   2.19656   2.24218   2.36783
 Alpha virt. eigenvalues --    2.40735   2.45591   2.53633   2.55840   2.76671
 Alpha virt. eigenvalues --    2.86183   2.87165   2.88817   2.92302   3.07004
 Alpha virt. eigenvalues --    3.11124   3.14795   3.16975   3.18451   3.18754
 Alpha virt. eigenvalues --    3.19691   3.24445   3.28567   3.32436   3.32996
 Alpha virt. eigenvalues --    3.37787   3.40432   3.46374   3.49413   3.50697
 Alpha virt. eigenvalues --    3.52304   3.52662   3.59703   3.60020   3.61126
 Alpha virt. eigenvalues --    3.64078   3.65338   3.71017   3.71678   3.81050
 Alpha virt. eigenvalues --    3.86508   3.90624   3.93241   3.93262   3.94942
 Alpha virt. eigenvalues --    3.97642   3.98811   4.01009   4.01361   4.04737
 Alpha virt. eigenvalues --    4.06602   4.07740   4.09341   4.13122   4.13713
 Alpha virt. eigenvalues --    4.14207   4.14333   4.16459   4.17678   4.18577
 Alpha virt. eigenvalues --    4.20080   4.22521   4.24133   4.26002   4.26175
 Alpha virt. eigenvalues --    4.26975   4.28469   4.29328   4.32997   4.33092
 Alpha virt. eigenvalues --    4.35687   4.37344   4.37835   4.39491   4.41372
 Alpha virt. eigenvalues --    4.42739   4.44110   4.48837   4.50802   4.52237
 Alpha virt. eigenvalues --    4.52745   4.55328   4.56894   4.58178   4.63319
 Alpha virt. eigenvalues --    4.66867   4.71820   4.72226   4.72475   4.75687
 Alpha virt. eigenvalues --    4.84406   4.87244   4.88574   4.89327   4.90215
 Alpha virt. eigenvalues --    4.93420   5.01977   5.02279   5.06084   5.09634
 Alpha virt. eigenvalues --    5.13739   5.17326   5.18559   5.22151   5.22285
 Alpha virt. eigenvalues --    5.26260   5.30820   5.30932   5.32707   5.36983
 Alpha virt. eigenvalues --    5.37725   5.42338   5.44078   5.51244   5.54180
 Alpha virt. eigenvalues --    5.56029   5.57658   5.59892   5.65707   5.69736
 Alpha virt. eigenvalues --    5.70136   5.80980   5.81565   5.85509   5.89379
 Alpha virt. eigenvalues --    6.00422   6.06261   6.11348   6.23744   6.24159
 Alpha virt. eigenvalues --    6.29203   6.40725   6.42541   6.58597   6.85969
 Alpha virt. eigenvalues --    6.88672   6.94700   7.09334   9.41503  12.36066
 Alpha virt. eigenvalues --   12.48341  15.27221  16.91195  18.36154  22.55167
          Condensed to atoms (all electrons):
               1          2          3          4          5          6
     1  C    4.805836   0.503523  -0.033523  -0.036655  -0.069440   0.349307
     2  C    0.503523   5.038075   0.365645  -0.021183  -0.036655  -0.050705
     3  C   -0.033523   0.365645   4.526954   0.365645  -0.033523  -0.014884
     4  C   -0.036655  -0.021183   0.365645   5.038075   0.503523  -0.050705
     5  C   -0.069440  -0.036655  -0.033523   0.503523   4.805836   0.349307
     6  N    0.349307  -0.050705  -0.014884  -0.050705   0.349307   6.331672
     7  H    0.431902  -0.041564   0.005702  -0.005527   0.002694  -0.043947
     8  H   -0.047056   0.460894  -0.054981   0.009552   0.000247   0.005396
     9  H    0.000247   0.009552  -0.054981   0.460894  -0.047056   0.005396
    10  H    0.002694  -0.005527   0.005702  -0.041564   0.431902  -0.043947
    11  O    0.009232  -0.074342   0.468747  -0.074342   0.009232   0.000788
    12  H   -0.036037   0.008342  -0.001583   0.008342  -0.036037   0.427631
               7          8          9         10         11         12
     1  C    0.431902  -0.047056   0.000247   0.002694   0.009232  -0.036037
     2  C   -0.041564   0.460894   0.009552  -0.005527  -0.074342   0.008342
     3  C    0.005702  -0.054981  -0.054981   0.005702   0.468747  -0.001583
     4  C   -0.005527   0.009552   0.460894  -0.041564  -0.074342   0.008342
     5  C    0.002694   0.000247  -0.047056   0.431902   0.009232  -0.036037
     6  N   -0.043947   0.005396   0.005396  -0.043947   0.000788   0.427631
     7  H    0.602979  -0.014331   0.000403  -0.001487  -0.000890  -0.008828
     8  H   -0.014331   0.579223  -0.000278   0.000403   0.008348  -0.000294
     9  H    0.000403  -0.000278   0.579223  -0.014331   0.008348  -0.000294
    10  H   -0.001487   0.000403  -0.014331   0.602979  -0.000890  -0.008828
    11  O   -0.000890   0.008348   0.008348  -0.000890   8.164698   0.000086
    12  H   -0.008828  -0.000294  -0.000294  -0.008828   0.000086   0.497632
 Mulliken charges:
               1
     1  C    0.119971
     2  C   -0.156055
     3  C    0.455079
     4  C   -0.156055
     5  C    0.119971
     6  N   -0.265310
     7  H    0.072894
     8  H    0.052879
     9  H    0.052879
    10  H    0.072894
    11  O   -0.519014
    12  H    0.149867
 Sum of Mulliken charges =  -0.00000
 Mulliken charges with hydrogens summed into heavy atoms:
               1
     1  C    0.192865
     2  C   -0.103176
     3  C    0.455079
     4  C   -0.103176
     5  C    0.192865
     6  N   -0.115443
    11  O   -0.519014
 Electronic spatial extent (au):  <R**2>=            640.7374
 Charge=             -0.0000 electrons
 Dipole moment (field-independent basis, Debye):
    X=              0.0013    Y=              6.9312    Z=             -0.0000  Tot=              6.9312
 Quadrupole moment (field-independent basis, Debye-Ang):
   XX=            -42.8109   YY=            -42.3664   ZZ=            -34.4825
   XY=             -0.0054   XZ=              0.0000   YZ=              0.0000
 Traceless Quadrupole moment (field-independent basis, Debye-Ang):
   XX=             -2.9243   YY=             -2.4798   ZZ=              5.4041
   XY=             -0.0054   XZ=              0.0000   YZ=              0.0000
 Octapole moment (field-independent basis, Debye-Ang**2):
  XXX=             -0.0038  YYY=             57.5303  ZZZ=              0.0000  XYY=              0.0023
  XXY=             -2.1817  XXZ=              0.0000  XZZ=              0.0086  YZZ=              3.6814
  YYZ=              0.0000  XYZ=              0.0000
 Hexadecapole moment (field-independent basis, Debye-Ang**3):
 XXXX=            -46.3384 YYYY=           -490.8976 ZZZZ=           -263.1787 XXXY=             -0.0316
 XXXZ=             -0.0000 YYYX=             -0.0739 YYYZ=             -0.0000 ZZZX=             -0.0000
 ZZZY=              0.0000 XXYY=            -91.5054 XXZZ=            -63.9619 YYZZ=           -116.3005
 XXYZ=             -0.0000 YYXZ=              0.0000 ZZXY=             -0.0068
 N-N= 2.732804388411D+02 E-N=-1.301769907347D+03  KE= 3.222258468508D+02
 Symmetry A'   KE= 2.364007549877D+02
 Symmetry A"   KE= 8.582509186312D+01
 No NMR shielding tensors so no spin-rotation constants.
 Leave Link  601 at Fri Aug 27 21:27:35 2021, MaxMem= 17179869184 cpu:        64.8
 (Enter /public3/home/sc51754/softwares/g09e01/l701.exe)
 Compute integral first derivatives.
 ... and contract with generalized density number  0.
 Leave Link  701 at Fri Aug 27 21:27:36 2021, MaxMem= 17179869184 cpu:        81.9
 (Enter /public3/home/sc51754/softwares/g09e01/l702.exe)
 L702 exits ... SP integral derivatives will be done elsewhere.
 Leave Link  702 at Fri Aug 27 21:27:36 2021, MaxMem= 17179869184 cpu:         0.3
 (Enter /public3/home/sc51754/softwares/g09e01/l703.exe)
 Compute integral first derivatives, UseDBF=F ICtDFT=           0.
 Integral derivatives from FoFJK, PRISM(SPDF).
 Calling FoFJK, ICntrl=      2127 FMM=F ISym2X=1 I1Cent= 0 IOpClX= 0 NMat=1 NMatS=1 NMatT=0.
 FoFJK:  IHMeth= 1 ICntrl=    2127 DoSepK=F KAlg= 0 I1Cent=   0 FoldK=F
 IRaf=         0 NMat=   1 IRICut=       1 DoRegI=T DoRafI=F ISym2E= 1.
 FoFCou: FMM=F IPFlag=           0 FMFlag=      100000 FMFlg1=         800
         NFxFlg=           0 DoJE=F BraDBF=F KetDBF=F FulRan=T
         wScrn=  0.000000 ICntrl=    2127 IOpCl=  0 I1Cent=           0 NGrid=           0
         NMat0=    1 NMatS0=      1 NMatT0=    0 NMatD0=    1 NMtDS0=    0 NMtDT0=    0
 Petite list used in FoFCou.
 Leave Link  703 at Fri Aug 27 21:27:38 2021, MaxMem= 17179869184 cpu:       107.3
 (Enter /public3/home/sc51754/softwares/g09e01/l716.exe)
 Dipole        = 4.95562465D-04 2.72696116D+00 8.86536813D-16
 ***** Axes restored to original set *****
 -------------------------------------------------------------------
 Center     Atomic                   Forces (Hartrees/Bohr)
 Number     Number              X              Y              Z
 -------------------------------------------------------------------
      1        6          -0.000007770    0.007714324   -0.006729163
      2        6           0.000001548   -0.006677946   -0.004818531
      3        6          -0.000014216    0.010966680   -0.000000000
      4        6           0.000001548   -0.006677946    0.004818531
      5        6          -0.000007770    0.007714324    0.006729163
      6        7           0.000003840    0.003478390    0.000000000
      7        1           0.000015089    0.001747111   -0.001932169
      8        1           0.000007090   -0.001200863   -0.002188054
      9        1           0.000007090   -0.001200863    0.002188054
     10        1           0.000015089    0.001747111    0.001932169
     11        8          -0.000004775   -0.022279167    0.000000000
     12        1          -0.000016764    0.004668844   -0.000000000
 -------------------------------------------------------------------
 Cartesian Forces:  Max     0.022279167 RMS     0.005327522
 Leave Link  716 at Fri Aug 27 21:27:38 2021, MaxMem= 17179869184 cpu:         0.4
 (Enter /public3/home/sc51754/softwares/g09e01/l103.exe)

 GradGradGradGradGradGradGradGradGradGradGradGradGradGradGradGradGradGrad
 Berny optimization.
 FormGI is forming the generalized inverse of G from B-inverse, IUseBI=4.
 Internal  Forces:  Max     0.022279167 RMS     0.004820324
 Search for a local minimum.
 Step number   1 out of a maximum of   64
 All quantities printed in internal units (Hartrees-Bohrs-Radians)
 RMS Force = .48203D-02 SwitMx=.10000D-02 MixMth= 1
 Mixed Optimization -- RFO/linear search
 Second derivative matrix not updated -- first step.
 ITU=  0
     Eigenvalues ---    0.01179   0.01465   0.01838   0.01956   0.02032
     Eigenvalues ---    0.02219   0.02234   0.02399   0.02441   0.16000
     Eigenvalues ---    0.16000   0.16000   0.16000   0.16000   0.22000
     Eigenvalues ---    0.22000   0.23391   0.25000   0.34645   0.35229
     Eigenvalues ---    0.35431   0.35431   0.35528   0.35528   0.46397
     Eigenvalues ---    0.47941   0.48075   0.51510   0.53792   0.89549
 RFO step:  Lambda=-2.17892493D-03 EMin= 1.17876314D-02
 Linear search not attempted -- first point.
 Iteration  1 RMS(Cart)=  0.01397605 RMS(Int)=  0.00000954
 Iteration  2 RMS(Cart)=  0.00000862 RMS(Int)=  0.00000254
 Iteration  3 RMS(Cart)=  0.00000000 RMS(Int)=  0.00000254
 ITry= 1 IFail=0 DXMaxC= 5.32D-02 DCOld= 1.00D+10 DXMaxT= 3.00D-01 DXLimC= 3.00D+00 Rises=F
 ClnCor:  largest displacement from symmetrization is 1.08D-11 for atom    10.
 Variable       Old X    -DE/DX   Delta X   Delta X   Delta X     New X
                                 (Linear)    (Quad)   (Total)
    R1        2.56220  -0.01352   0.00000  -0.02504  -0.02504   2.53717
    R2        2.59705  -0.00908   0.00000  -0.01842  -0.01842   2.57863
    R3        2.04981  -0.00258   0.00000  -0.00725  -0.00725   2.04256
    R4        2.77562  -0.00940   0.00000  -0.02552  -0.02552   2.75010
    R5        2.04825  -0.00250   0.00000  -0.00698  -0.00698   2.04127
    R6        2.77562  -0.00940   0.00000  -0.02552  -0.02552   2.75010
    R7        2.33142  -0.02228   0.00000  -0.02482  -0.02482   2.30660
    R8        2.56220  -0.01352   0.00000  -0.02504  -0.02504   2.53717
    R9        2.04825  -0.00250   0.00000  -0.00698  -0.00698   2.04127
   R10        2.59705  -0.00908   0.00000  -0.01842  -0.01842   2.57863
   R11        2.04981  -0.00258   0.00000  -0.00725  -0.00725   2.04256
   R12        1.90386  -0.00467   0.00000  -0.01002  -0.01002   1.89385
    A1        2.11471   0.00063   0.00000   0.00201   0.00201   2.11672
    A2        2.15142  -0.00066   0.00000  -0.00312  -0.00312   2.14829
    A3        2.01706   0.00003   0.00000   0.00111   0.00111   2.01817
    A4        2.12519  -0.00064   0.00000  -0.00196  -0.00195   2.12324
    A5        2.09805   0.00032   0.00000   0.00097   0.00097   2.09902
    A6        2.05994   0.00032   0.00000   0.00098   0.00098   2.06092
    A7        1.98154   0.00048   0.00000   0.00359   0.00360   1.98514
    A8        2.15082  -0.00024   0.00000  -0.00180  -0.00180   2.14902
    A9        2.15082  -0.00024   0.00000  -0.00180  -0.00180   2.14902
   A10        2.12519  -0.00064   0.00000  -0.00196  -0.00195   2.12324
   A11        2.05994   0.00032   0.00000   0.00098   0.00098   2.06092
   A12        2.09805   0.00032   0.00000   0.00097   0.00097   2.09902
   A13        2.11471   0.00063   0.00000   0.00201   0.00201   2.11672
   A14        2.15142  -0.00066   0.00000  -0.00312  -0.00312   2.14829
   A15        2.01706   0.00003   0.00000   0.00111   0.00111   2.01817
   A16        2.10503  -0.00045   0.00000  -0.00371  -0.00371   2.10132
   A17        2.08908   0.00023   0.00000   0.00185   0.00186   2.09093
   A18        2.08908   0.00023   0.00000   0.00185   0.00186   2.09093
    D1       -0.00015   0.00000   0.00000   0.00009   0.00009  -0.00007
    D2        3.14133   0.00000   0.00000   0.00019   0.00019   3.14152
    D3       -3.14143  -0.00000   0.00000  -0.00015  -0.00015  -3.14157
    D4        0.00006  -0.00000   0.00000  -0.00005  -0.00005   0.00001
    D5       -0.00035   0.00001   0.00000   0.00031   0.00031  -0.00004
    D6        3.14089   0.00000   0.00000   0.00015   0.00015   3.14104
    D7        3.14095   0.00001   0.00000   0.00052   0.00052   3.14147
    D8       -0.00100   0.00001   0.00000   0.00036   0.00036  -0.00064
    D9        0.00059  -0.00001   0.00000  -0.00044  -0.00044   0.00015
   D10       -3.14124   0.00000   0.00000   0.00012   0.00012  -3.14112
   D11       -3.14090  -0.00001   0.00000  -0.00053  -0.00053  -3.14143
   D12        0.00046  -0.00000   0.00000   0.00002   0.00002   0.00048
   D13       -0.00059   0.00001   0.00000   0.00044   0.00044  -0.00015
   D14        3.14090   0.00001   0.00000   0.00053   0.00053   3.14143
   D15        3.14124  -0.00000   0.00000  -0.00012  -0.00012   3.14112
   D16       -0.00046   0.00000   0.00000  -0.00002  -0.00002  -0.00048
   D17        0.00015  -0.00000   0.00000  -0.00009  -0.00009   0.00007
   D18        3.14143   0.00000   0.00000   0.00015   0.00015   3.14157
   D19       -3.14133  -0.00000   0.00000  -0.00019  -0.00019  -3.14152
   D20       -0.00006   0.00000   0.00000   0.00005   0.00005  -0.00001
   D21        0.00035  -0.00001   0.00000  -0.00031  -0.00031   0.00004
   D22       -3.14089  -0.00000   0.00000  -0.00015  -0.00015  -3.14104
   D23       -3.14095  -0.00001   0.00000  -0.00052  -0.00052  -3.14147
   D24        0.00100  -0.00001   0.00000  -0.00036  -0.00036   0.00064
         Item               Value     Threshold  Converged?
 Maximum Force            0.022279     0.000450     NO 
 RMS     Force            0.004820     0.000300     NO 
 Maximum Displacement     0.053246     0.001800     NO 
 RMS     Displacement     0.013977     0.001200     NO 
 Predicted change in Energy=-1.094062D-03
 Lowest energy point so far.  Saving SCF results.
 GradGradGradGradGradGradGradGradGradGradGradGradGradGradGradGradGradGrad

 Leave Link  103 at Fri Aug 27 21:27:40 2021, MaxMem= 17179869184 cpu:        78.5
 (Enter /public3/home/sc51754/softwares/g09e01/l202.exe)
                          Input orientation:                          
 ---------------------------------------------------------------------
 Center     Atomic      Atomic             Coordinates (Angstroms)
 Number     Number       Type             X           Y           Z
 ---------------------------------------------------------------------
      1          6           0       -0.000217   -1.041065    1.184092
      2          6           0       -0.000211    0.301100    1.218707
      3          6           0       -0.000102    1.096473    0.000000
      4          6           0       -0.000211    0.301100   -1.218707
      5          6           0       -0.000217   -1.041065   -1.184092
      6          7           0       -0.000198   -1.719247   -0.000000
      7          1           0       -0.000316   -1.654299    2.074170
      8          1           0       -0.000294    0.821288    2.165399
      9          1           0       -0.000294    0.821288   -2.165399
     10          1           0       -0.000316   -1.654299   -2.074170
     11          8           0        0.000392    2.317072    0.000000
     12          1           0        0.000281   -2.721427   -0.000000
 ---------------------------------------------------------------------
                    Distance matrix (angstroms):
                    1          2          3          4          5
     1  C    0.000000
     2  C    1.342611   0.000000
     3  C    2.443592   1.455289   0.000000
     4  C    2.752245   2.437415   1.455289   0.000000
     5  C    2.368185   2.752245   2.443592   1.342611   0.000000
     6  N    1.364554   2.359460   2.815721   2.359460   1.364554
     7  H    1.080877   2.134339   3.445132   3.829704   3.315469
     8  H    2.105070   1.080195   2.182814   3.423853   3.832421
     9  H    3.832421   3.423853   2.182814   1.080195   2.105070
    10  H    3.315469   3.829704   3.445132   2.134339   1.080877
    11  O    3.560780   2.355714   1.220598   2.355714   3.560780
    12  H    2.055649   3.258975   3.817901   3.258975   2.055649
                    6          7          8          9         10
     6  N    0.000000
     7  H    2.075187   0.000000
     8  H    3.338154   2.477268   0.000000
     9  H    3.338154   4.909428   4.330798   0.000000
    10  H    2.075187   4.148340   4.909428   2.477268   0.000000
    11  O    4.036319   4.480398   2.631790   2.631790   4.480398
    12  H    1.002180   2.332583   4.152082   4.152082   2.332583
                   11         12
    11  O    0.000000
    12  H    5.038499   0.000000
 Stoichiometry    C5H5NO
 Framework group  CS[SG(CHNO),X(C4H4)]
 Deg. of freedom    17
 Full point group                 CS      NOp   2
 RotChk:  IX=3 Diff= 7.17D-06
 Largest Abelian subgroup         CS      NOp   2
 Largest concise Abelian subgroup CS      NOp   2
                         Standard orientation:                         
 ---------------------------------------------------------------------
 Center     Atomic      Atomic             Coordinates (Angstroms)
 Number     Number       Type             X           Y           Z
 ---------------------------------------------------------------------
      1          6           0        0.000113    1.037338    1.184092
      2          6           0        0.000113   -0.304827    1.218707
      3          6           0        0.000009   -1.100200    0.000000
      4          6           0        0.000113   -0.304827   -1.218707
      5          6           0        0.000113    1.037338   -1.184092
      6          7           0        0.000091    1.715521   -0.000000
      7          1           0        0.000209    1.650573    2.074170
      8          1           0        0.000200   -0.825015    2.165399
      9          1           0        0.000200   -0.825015   -2.165399
     10          1           0        0.000209    1.650573   -2.074170
     11          8           0       -0.000479   -2.320798    0.000000
     12          1           0       -0.000394    2.717701   -0.000000
 ---------------------------------------------------------------------
 Rotational constants (GHZ):      5.7811305      2.7458276      1.8616238
 Leave Link  202 at Fri Aug 27 21:27:40 2021, MaxMem= 17179869184 cpu:         5.8
 (Enter /public3/home/sc51754/softwares/g09e01/l301.exe)
 Basis read from rwf:  (5D, 7F)
 No pseudopotential information found on rwf file.
 There are   183 symmetry adapted cartesian basis functions of A'  symmetry.
 There are   137 symmetry adapted cartesian basis functions of A"  symmetry.
 There are   158 symmetry adapted basis functions of A'  symmetry.
 There are   122 symmetry adapted basis functions of A"  symmetry.
   280 basis functions,   475 primitive gaussians,   320 cartesian basis functions
    25 alpha electrons       25 beta electrons
       nuclear repulsion energy       275.6323952958 Hartrees.
 IExCor= 4235 DFT=T Ex+Corr=M06 ExCW=0 ScaHFX=  0.270000
 ScaDFX=  1.000000  1.000000  1.000000  1.000000 ScalE2=  1.000000  1.000000
 IRadAn=      0 IRanWt=     -1 IRanGd=            0 ICorTp=0 IEmpDi=  4
 NAtoms=   12 NActive=   12 NUniq=    8 SFac= 2.25D+00 NAtFMM=   60 NAOKFM=F Big=F
 Integral buffers will be    131072 words long.
 Raffenetti 2 integral format.
 Two-electron integral symmetry is turned on.
 No density basis found on file   724.
 Leave Link  301 at Fri Aug 27 21:27:40 2021, MaxMem= 17179869184 cpu:         1.0
 (Enter /public3/home/sc51754/softwares/g09e01/l302.exe)
 NPDir=0 NMtPBC=     1 NCelOv=     1 NCel=       1 NClECP=     1 NCelD=      1
         NCelK=      1 NCelE2=     1 NClLst=     1 CellRange=     0.0.
 One-electron integrals computed using PRISM.
 One-electron integral symmetry used in STVInt
 NBasis=   280 RedAO= T EigKep=  1.74D-04  NBF=   158   122
 NBsUse=   280 1.00D-06 EigRej= -1.00D+00 NBFU=   158   122
 Precomputing XC quadrature grid using
 IXCGrd= 4 IRadAn=           0 IRanWt=          -1 IRanGd=           0 AccXCQ= 0.00D+00.
 Generated NRdTot=       0 NPtTot=           0 NUsed=           0 NTot=          32
 NSgBfM=   320   320   320   320   320 MxSgAt=    12 MxSgA2=    12.
 Leave Link  302 at Fri Aug 27 21:27:41 2021, MaxMem= 17179869184 cpu:        38.5
 (Enter /public3/home/sc51754/softwares/g09e01/l303.exe)
 DipDrv:  MaxL=1.
 Leave Link  303 at Fri Aug 27 21:27:42 2021, MaxMem= 17179869184 cpu:        13.1
 (Enter /public3/home/sc51754/softwares/g09e01/l401.exe)
 Initial guess from the checkpoint file:  "4PY_M06_PC2_OPT_FREQ.chk"
 B after Tr=     0.000000    0.000000    0.000000
         Rot=    1.000000   -0.000000    0.000000   -0.000015 Ang=  -0.00 deg.
 Guess basis will be translated and rotated to current coordinates.
 JPrj=2 DoOrth=T DoCkMO=T.
 Initial guess orbital symmetries:
       Occupied  (A') (A') (A') (A") (A') (A") (A') (A') (A') (A')
                 (A") (A") (A') (A') (A") (A') (A") (A') (A') (A')
                 (A") (A') (A") (A") (A')
       Virtual   (A') (A') (A') (A') (A') (A') (A') (A') (A') (A')
                 (A') (A') (A') (A') (A') (A') (A') (A') (A') (A')
                 (A') (A') (A') (A') (A') (A') (A') (A') (A') (A')
                 (A') (A') (A') (A') (A') (A') (A') (A') (A') (A')
                 (A') (A') (A') (A') (A') (A') (A') (A') (A') (A')
                 (A') (A') (A') (A') (A') (A') (A') (A') (A') (A')
                 (A') (A') (A') (A') (A') (A') (A') (A') (A') (A')
                 (A') (A') (A') (A') (A') (A') (A') (A') (A') (A')
                 (A') (A') (A') (A') (A') (A') (A') (A') (A') (A')
                 (A') (A') (A') (A') (A') (A') (A') (A') (A') (A')
                 (A') (A') (A') (A') (A') (A') (A') (A') (A') (A')
                 (A') (A') (A') (A') (A') (A') (A') (A') (A') (A')
                 (A') (A') (A') (A') (A') (A') (A') (A') (A') (A')
                 (A') (A') (A') (A') (A') (A') (A') (A') (A') (A')
                 (A') (A') (A") (A") (A") (A") (A") (A") (A") (A")
                 (A") (A") (A") (A") (A") (A") (A") (A") (A") (A")
                 (A") (A") (A") (A") (A") (A") (A") (A") (A") (A")
                 (A") (A") (A") (A") (A") (A") (A") (A") (A") (A")
                 (A") (A") (A") (A") (A") (A") (A") (A") (A") (A")
                 (A") (A") (A") (A") (A") (A") (A") (A") (A") (A")
                 (A") (A") (A") (A") (A") (A") (A") (A") (A") (A")
                 (A") (A") (A") (A") (A") (A") (A") (A") (A") (A")
                 (A") (A") (A") (A") (A") (A") (A") (A") (A") (A")
                 (A") (A") (A") (A") (A") (A") (A") (A") (A") (A")
                 (A") (A") (A") (A") (A") (A") (A") (A") (A") (A")
                 (A") (A") (A") (A") (A")
 The electronic state of the initial guess is 1-A'.
 Generating alternative initial guess.
 ExpMin= 7.41D-02 ExpMax= 1.48D+04 ExpMxC= 5.05D+02 IAcc=2 IRadAn=         4 AccDes= 0.00D+00
 Harris functional with IExCor= 1009 and IRadAn=       4 diagonalized for initial guess.
 HarFok:  IExCor= 1009 AccDes= 0.00D+00 IRadAn=         4 IDoV= 1 UseB2=F ITyADJ=14
 ICtDFT=  3500011 ScaDFX=  1.000000  1.000000  1.000000  1.000000
 FoFCou: FMM=F IPFlag=           0 FMFlag=      100000 FMFlg1=           0
         NFxFlg=           0 DoJE=T BraDBF=F KetDBF=T FulRan=T
         wScrn=  0.000000 ICntrl=     500 IOpCl=  0 I1Cent=   200000004 NGrid=           0
         NMat0=    1 NMatS0=      1 NMatT0=    0 NMatD0=    1 NMtDS0=    0 NMtDT0=    0
 Petite list used in FoFCou.
 Harris En= -323.381002067061    
 Leave Link  401 at Fri Aug 27 21:27:43 2021, MaxMem= 17179869184 cpu:        61.7
 (Enter /public3/home/sc51754/softwares/g09e01/l502.exe)
 Closed shell SCF:
 Using DIIS extrapolation, IDIIS=  1040.
 Integral symmetry usage will be decided dynamically.
 Keep R1 ints in memory in symmetry-blocked form, NReq=1161351758.
 IVT=      348938 IEndB=      348938 NGot= 17179869184 MDV= 16792355177
 LenX= 16792355177 LenY= 16792252336
 Requested convergence on RMS density matrix=1.00D-08 within 128 cycles.
 Requested convergence on MAX density matrix=1.00D-06.
 Requested convergence on             energy=1.00D-06.
 No special actions if energy rises.
 FoFCou: FMM=F IPFlag=           0 FMFlag=           0 FMFlg1=           0
         NFxFlg=           0 DoJE=F BraDBF=F KetDBF=F FulRan=T
         wScrn=  0.000000 ICntrl=     600 IOpCl=  0 I1Cent=           0 NGrid=           0
         NMat0=    1 NMatS0=  39340 NMatT0=    0 NMatD0=    1 NMtDS0=    0 NMtDT0=    0
 Petite list used in FoFCou.
 Integral accuracy reduced to 1.0D-05 until final iterations.

 Cycle   1  Pass 0  IDiag  1:
 E= -323.420484688618    
 DIIS: error= 9.26D-04 at cycle   1 NSaved=   1.
 NSaved= 1 IEnMin= 1 EnMin= -323.420484688618     IErMin= 1 ErrMin= 9.26D-04
 ErrMax= 9.26D-04  0.00D+00 EMaxC= 1.00D-01 BMatC= 4.16D-04 BMatP= 4.16D-04
 IDIUse=3 WtCom= 9.91D-01 WtEn= 9.26D-03
 Coeff-Com:  0.100D+01
 Coeff-En:   0.100D+01
 Coeff:      0.100D+01
 Gap=     0.604 Goal=   None    Shift=    0.000
 RMSDP=8.88D-05 MaxDP=2.36D-03              OVMax= 3.83D-03

 Cycle   2  Pass 0  IDiag  1:
 E= -323.420729042238     Delta-E=       -0.000244353620 Rises=F Damp=F
 DIIS: error= 6.22D-04 at cycle   2 NSaved=   2.
 NSaved= 2 IEnMin= 2 EnMin= -323.420729042238     IErMin= 2 ErrMin= 6.22D-04
 ErrMax= 6.22D-04  0.00D+00 EMaxC= 1.00D-01 BMatC= 7.29D-05 BMatP= 4.16D-04
 IDIUse=3 WtCom= 9.94D-01 WtEn= 6.22D-03
 Coeff-Com:  0.229D+00 0.771D+00
 Coeff-En:   0.000D+00 0.100D+01
 Coeff:      0.228D+00 0.772D+00
 Gap=     0.214 Goal=   None    Shift=    0.000
 RMSDP=4.21D-05 MaxDP=2.13D-03 DE=-2.44D-04 OVMax= 3.05D-03

 Cycle   3  Pass 0  IDiag  1:
 E= -323.420755238941     Delta-E=       -0.000026196703 Rises=F Damp=F
 DIIS: error= 4.88D-04 at cycle   3 NSaved=   3.
 NSaved= 3 IEnMin= 3 EnMin= -323.420755238941     IErMin= 3 ErrMin= 4.88D-04
 ErrMax= 4.88D-04  0.00D+00 EMaxC= 1.00D-01 BMatC= 4.56D-05 BMatP= 7.29D-05
 IDIUse=3 WtCom= 9.95D-01 WtEn= 4.88D-03
 Coeff-Com:  0.266D-01 0.440D+00 0.533D+00
 Coeff-En:   0.000D+00 0.384D+00 0.616D+00
 Coeff:      0.265D-01 0.440D+00 0.534D+00
 Gap=     0.213 Goal=   None    Shift=    0.000
 RMSDP=2.22D-05 MaxDP=9.68D-04 DE=-2.62D-05 OVMax= 2.68D-03

 Cycle   4  Pass 0  IDiag  1:
 E= -323.420790075295     Delta-E=       -0.000034836354 Rises=F Damp=F
 DIIS: error= 2.64D-04 at cycle   4 NSaved=   4.
 NSaved= 4 IEnMin= 4 EnMin= -323.420790075295     IErMin= 4 ErrMin= 2.64D-04
 ErrMax= 2.64D-04  0.00D+00 EMaxC= 1.00D-01 BMatC= 8.62D-06 BMatP= 4.56D-05
 IDIUse=3 WtCom= 9.97D-01 WtEn= 2.64D-03
 Coeff-Com: -0.423D-02 0.224D+00 0.358D+00 0.422D+00
 Coeff-En:   0.000D+00 0.000D+00 0.801D-01 0.920D+00
 Coeff:     -0.422D-02 0.224D+00 0.357D+00 0.423D+00
 Gap=     0.214 Goal=   None    Shift=    0.000
 RMSDP=1.08D-05 MaxDP=4.71D-04 DE=-3.48D-05 OVMax= 1.21D-03

 Cycle   5  Pass 0  IDiag  1:
 E= -323.420796317059     Delta-E=       -0.000006241764 Rises=F Damp=F
 DIIS: error= 2.83D-05 at cycle   5 NSaved=   5.
 NSaved= 5 IEnMin= 5 EnMin= -323.420796317059     IErMin= 5 ErrMin= 2.83D-05
 ErrMax= 2.83D-05  0.00D+00 EMaxC= 1.00D-01 BMatC= 1.62D-07 BMatP= 8.62D-06
 IDIUse=1 WtCom= 1.00D+00 WtEn= 0.00D+00
 Coeff-Com: -0.363D-02 0.393D-01 0.888D-01 0.166D+00 0.709D+00
 Coeff:     -0.363D-02 0.393D-01 0.888D-01 0.166D+00 0.709D+00
 Gap=     0.214 Goal=   None    Shift=    0.000
 RMSDP=1.90D-06 MaxDP=5.64D-05 DE=-6.24D-06 OVMax= 2.57D-04

 Initial convergence to 1.0D-05 achieved.  Increase integral accuracy.
 Cycle   6  Pass 1  IDiag  1:
 E= -323.421320415872     Delta-E=       -0.000524098813 Rises=F Damp=F
 DIIS: error= 4.07D-04 at cycle   1 NSaved=   1.
 NSaved= 1 IEnMin= 1 EnMin= -323.421320415872     IErMin= 1 ErrMin= 4.07D-04
 ErrMax= 4.07D-04  0.00D+00 EMaxC= 1.00D-01 BMatC= 7.07D-05 BMatP= 7.07D-05
 IDIUse=3 WtCom= 9.96D-01 WtEn= 4.07D-03
 Coeff-Com:  0.100D+01
 Coeff-En:   0.100D+01
[...]
 ITry= 1 IFail=0 DXMaxC= 9.23D-04 DCOld= 1.00D+10 DXMaxT= 3.00D-01 DXLimC= 3.00D+00 Rises=F
 ClnCor:  largest displacement from symmetrization is 1.55D-10 for atom    10.
 Variable       Old X    -DE/DX   Delta X   Delta X   Delta X     New X
                                 (Linear)    (Quad)   (Total)
    R1        2.53916  -0.00002   0.00000  -0.00001  -0.00001   2.53915
    R2        2.57889  -0.00001   0.00000   0.00001   0.00001   2.57889
    R3        2.04354  -0.00003   0.00000  -0.00008  -0.00008   2.04346
    R4        2.75494  -0.00009   0.00000  -0.00032  -0.00032   2.75462
    R5        2.04168  -0.00001   0.00000  -0.00004  -0.00004   2.04164
    R6        2.75494  -0.00009   0.00000  -0.00032  -0.00032   2.75462
    R7        2.30536   0.00006   0.00000   0.00016   0.00016   2.30552
    R8        2.53916  -0.00002   0.00000  -0.00001  -0.00001   2.53915
    R9        2.04168  -0.00001   0.00000  -0.00004  -0.00004   2.04164
   R10        2.57889  -0.00001   0.00000   0.00001   0.00001   2.57889
   R11        2.04354  -0.00003   0.00000  -0.00008  -0.00008   2.04346
   R12        1.89382  -0.00000   0.00000   0.00000   0.00000   1.89382
    A1        2.11829  -0.00001   0.00000  -0.00006  -0.00006   2.11823
    A2        2.14569   0.00003   0.00000   0.00023   0.00023   2.14593
    A3        2.01920  -0.00002   0.00000  -0.00017  -0.00017   2.01903
    A4        2.12460  -0.00001   0.00000  -0.00006  -0.00006   2.12454
    A5        2.09936  -0.00001   0.00000  -0.00007  -0.00007   2.09929
    A6        2.05922   0.00002   0.00000   0.00013   0.00013   2.05936
    A7        1.98100   0.00004   0.00000   0.00022   0.00022   1.98123
    A8        2.15109  -0.00002   0.00000  -0.00011  -0.00011   2.15098
    A9        2.15109  -0.00002   0.00000  -0.00011  -0.00011   2.15098
   A10        2.12460  -0.00001   0.00000  -0.00006  -0.00006   2.12454
   A11        2.05922   0.00002   0.00000   0.00013   0.00013   2.05936
   A12        2.09936  -0.00001   0.00000  -0.00007  -0.00007   2.09929
   A13        2.11829  -0.00001   0.00000  -0.00006  -0.00006   2.11823
   A14        2.14569   0.00003   0.00000   0.00023   0.00023   2.14593
   A15        2.01920  -0.00002   0.00000  -0.00017  -0.00017   2.01903
   A16        2.09958  -0.00000   0.00000   0.00003   0.00003   2.09961
   A17        2.09180   0.00000   0.00000  -0.00001  -0.00001   2.09179
   A18        2.09180   0.00000   0.00000  -0.00001  -0.00001   2.09179
    D1       -0.00028   0.00001   0.00000   0.00028   0.00028  -0.00000
    D2        3.14145   0.00001   0.00000   0.00015   0.00015   3.14159
    D3        3.14139   0.00001   0.00000   0.00020   0.00020   3.14159
    D4       -0.00007   0.00001   0.00000   0.00007   0.00007  -0.00000
    D5       -0.00007   0.00000   0.00000   0.00006   0.00006  -0.00001
    D6        3.14148  -0.00000   0.00000   0.00012   0.00012  -3.14159
    D7        3.14145   0.00001   0.00000   0.00013   0.00013   3.14158
    D8       -0.00019   0.00000   0.00000   0.00019   0.00019   0.00000
    D9        0.00058  -0.00003   0.00000  -0.00057  -0.00057   0.00001
   D10        3.14077   0.00003   0.00000   0.00083   0.00083  -3.14158
   D11       -3.14115  -0.00002   0.00000  -0.00044  -0.00044  -3.14158
   D12       -0.00096   0.00004   0.00000   0.00097   0.00097   0.00001
   D13       -0.00058   0.00003   0.00000   0.00057   0.00057  -0.00001
   D14        3.14115   0.00002   0.00000   0.00044   0.00044   3.14158
   D15       -3.14077  -0.00003   0.00000  -0.00083  -0.00083   3.14158
   D16        0.00096  -0.00004   0.00000  -0.00097  -0.00097  -0.00001
   D17        0.00028  -0.00001   0.00000  -0.00028  -0.00028   0.00000
   D18       -3.14139  -0.00001   0.00000  -0.00020  -0.00020  -3.14159
   D19       -3.14145  -0.00001   0.00000  -0.00015  -0.00015  -3.14159
   D20        0.00007  -0.00001   0.00000  -0.00007  -0.00007   0.00000
   D21        0.00007  -0.00000   0.00000  -0.00006  -0.00006   0.00001
   D22       -3.14148   0.00000   0.00000  -0.00012  -0.00012   3.14159
   D23       -3.14145  -0.00001   0.00000  -0.00013  -0.00013  -3.14158
   D24        0.00019  -0.00000   0.00000  -0.00019  -0.00019  -0.00000
         Item               Value     Threshold  Converged?
 Maximum Force            0.000090     0.000450     YES
 RMS     Force            0.000027     0.000300     YES
 Maximum Displacement     0.000923     0.001800     YES
 RMS     Displacement     0.000183     0.001200     YES
 Predicted change in Energy=-1.596885D-07
 Optimization completed.
    -- Stationary point found.
                           ----------------------------
                           !   Optimized Parameters   !
                           ! (Angstroms and Degrees)  !
 --------------------------                            --------------------------
 ! Name  Definition              Value          Derivative Info.                !
 --------------------------------------------------------------------------------
 ! R1    R(1,2)                  1.3437         -DE/DX =    0.0                 !
 ! R2    R(1,6)                  1.3647         -DE/DX =    0.0                 !
 ! R3    R(1,7)                  1.0814         -DE/DX =    0.0                 !
 ! R4    R(2,3)                  1.4579         -DE/DX =   -0.0001              !
 ! R5    R(2,8)                  1.0804         -DE/DX =    0.0                 !
 ! R6    R(3,4)                  1.4579         -DE/DX =   -0.0001              !
 ! R7    R(3,11)                 1.2199         -DE/DX =    0.0001              !
 ! R8    R(4,5)                  1.3437         -DE/DX =    0.0                 !
 ! R9    R(4,9)                  1.0804         -DE/DX =    0.0                 !
 ! R10   R(5,6)                  1.3647         -DE/DX =    0.0                 !
 ! R11   R(5,10)                 1.0814         -DE/DX =    0.0                 !
 ! R12   R(6,12)                 1.0022         -DE/DX =    0.0                 !
 ! A1    A(2,1,6)              121.3691         -DE/DX =    0.0                 !
 ! A2    A(2,1,7)              122.9392         -DE/DX =    0.0                 !
 ! A3    A(6,1,7)              115.6917         -DE/DX =    0.0                 !
 ! A4    A(1,2,3)              121.7308         -DE/DX =    0.0                 !
 ! A5    A(1,2,8)              120.2843         -DE/DX =    0.0                 !
 ! A6    A(3,2,8)              117.9849         -DE/DX =    0.0                 !
 ! A7    A(2,3,4)              113.5032         -DE/DX =    0.0                 !
 ! A8    A(2,3,11)             123.2484         -DE/DX =    0.0                 !
 ! A9    A(4,3,11)             123.2484         -DE/DX =    0.0                 !
 ! A10   A(3,4,5)              121.7308         -DE/DX =    0.0                 !
 ! A11   A(3,4,9)              117.9849         -DE/DX =    0.0                 !
 ! A12   A(5,4,9)              120.2843         -DE/DX =    0.0                 !
 ! A13   A(4,5,6)              121.3691         -DE/DX =    0.0                 !
 ! A14   A(4,5,10)             122.9392         -DE/DX =    0.0                 !
 ! A15   A(6,5,10)             115.6917         -DE/DX =    0.0                 !
 ! A16   A(1,6,5)              120.297          -DE/DX =    0.0                 !
 ! A17   A(1,6,12)             119.8515         -DE/DX =    0.0                 !
 ! A18   A(5,6,12)             119.8515         -DE/DX =    0.0                 !
 ! D1    D(6,1,2,3)             -0.0163         -DE/DX =    0.0                 !
 ! D2    D(6,1,2,8)            179.9915         -DE/DX =    0.0                 !
 ! D3    D(7,1,2,3)            179.9883         -DE/DX =    0.0                 !
 ! D4    D(7,1,2,8)             -0.0039         -DE/DX =    0.0                 !
 ! D5    D(2,1,6,5)             -0.0038         -DE/DX =    0.0                 !
 ! D6    D(2,1,6,12)          -180.0065         -DE/DX =    0.0                 !
 ! D7    D(7,1,6,5)            179.992          -DE/DX =    0.0                 !
 ! D8    D(7,1,6,12)            -0.0107         -DE/DX =    0.0                 !
 ! D9    D(1,2,3,4)              0.0332         -DE/DX =    0.0                 !
 ! D10   D(1,2,3,11)          -180.0471         -DE/DX =    0.0                 !
 ! D11   D(8,2,3,4)           -179.9745         -DE/DX =    0.0                 !
 ! D12   D(8,2,3,11)            -0.0548         -DE/DX =    0.0                 !
 ! D13   D(2,3,4,5)             -0.0332         -DE/DX =    0.0                 !
 ! D14   D(2,3,4,9)            179.9745         -DE/DX =    0.0                 !
 ! D15   D(11,3,4,5)           180.0471         -DE/DX =    0.0                 !
 ! D16   D(11,3,4,9)             0.0548         -DE/DX =    0.0                 !
 ! D17   D(3,4,5,6)              0.0163         -DE/DX =    0.0                 !
 ! D18   D(3,4,5,10)          -179.9883         -DE/DX =    0.0                 !
 ! D19   D(9,4,5,6)           -179.9915         -DE/DX =    0.0                 !
 ! D20   D(9,4,5,10)             0.0039         -DE/DX =    0.0                 !
 ! D21   D(4,5,6,1)              0.0038         -DE/DX =    0.0                 !
 ! D22   D(4,5,6,12)           180.0065         -DE/DX =    0.0                 !
 ! D23   D(10,5,6,1)          -179.992          -DE/DX =    0.0                 !
 ! D24   D(10,5,6,12)            0.0107         -DE/DX =    0.0                 !
 --------------------------------------------------------------------------------
 GradGradGradGradGradGradGradGradGradGradGradGradGradGradGradGradGradGrad

 Leave Link  103 at Fri Aug 27 21:29:08 2021, MaxMem= 17179869184 cpu:        60.5
 (Enter /public3/home/sc51754/softwares/g09e01/l9999.exe)
 1\1\GINC-T1507\Freq\RM06\Gen\C5H5N1O1\SC51754\27-Aug-2021\0\\#P Geom=A
 llCheck Guess=TCheck SCRF=Check GenChk RM06/ChkBas Freq\\4PY_M06_PC2_O
 PT_FREQ\\0,1\C,-0.0001575036,-1.0421890306,1.1836187649\C,-0.000061634
 4,0.3010040884,1.2192042343\C,0.0003891288,1.1003008718,0.\C,-0.000061
 6344,0.3010040884,-1.2192042343\C,-0.0001575036,-1.0421890306,-1.18361
 87649\N,-0.0001677075,-1.7214669515,0.\H,-0.0003032304,-1.6540242071,2
 .0752839792\H,-0.0001927706,0.8209464525,2.1662794202\H,-0.0001927706,
 0.8209464525,-2.1662794202\H,-0.0003032304,-1.6540242071,-2.0752839792
 \O,-0.0003530428,2.32024631,0.\H,-0.0001421003,-2.7236348367,0.\\Versi
 on=EM64L-G09RevE.01\State=1-A'\HF=-323.421366\RMSD=2.558e-09\RMSF=6.05
 1e-05\ZeroPoint=0.0934948\Thermal=0.0988956\Dipole=0.0002826,-2.699863
 3,0.\DipoleDeriv=-0.0535874,0.0000097,-0.0000241,0.0001382,0.6936665,0
 .2601491,-0.0000298,0.4127908,0.4302104,-0.2019673,-0.0001463,0.000065
 9,-0.0000761,-0.5805976,0.0488238,-0.0000128,0.4851714,-0.1459107,0.27
 21467,-0.0000239,0.,0.0001666,1.9421147,0.,0.,0.,0.5737894,-0.2019673,
 -0.0001463,-0.0000659,-0.0000761,-0.5805976,-0.0488238,0.0000128,-0.48
 51714,-0.1459107,-0.0535874,0.0000097,0.0000241,0.0001382,0.6936665,-0
 .2601491,0.0000298,-0.4127908,0.4302104,-0.1814318,-0.0000765,0.,-0.00
 0094,-0.8993484,0.,0.,0.,-0.7329311,0.1391143,-0.000075,0.0000051,-0.0
 000026,0.0199163,0.0656997,0.0000339,0.0529062,-0.0091339,0.1376602,-0
 .000016,0.0000302,-0.0000053,0.0478775,-0.0344991,0.000012,-0.0243788,
 -0.023574,0.1376602,-0.000016,-0.0000302,-0.0000053,0.0478775,0.034499
 1,-0.000012,0.0243787,-0.023574,0.1391143,-0.000075,-0.0000051,-0.0000
 026,0.0199163,-0.0656997,-0.0000339,-0.0529062,-0.0091339,-0.42805,0.0
 004818,0.,-0.0001831,-1.688773,0.,0.,0.,-0.4763977,0.2948955,0.0000739
 ,0.,0.0000022,0.2842812,0.,0.,0.,0.1323559\Polar=37.9150063,0.0004542,
 90.9142383,0.,0.,68.5432887\PG=CS [SG(C1H1N1O1),X(C4H4)]\NImag=0\\0.13
 261894,0.00007974,0.83313084,-0.00004766,-0.04903727,0.68646786,-0.052
 72251,-0.00004226,0.00002248,0.10577716,-0.00004964,-0.47097487,0.0148
 2774,0.00004616,0.80514961,0.00001587,-0.01806911,-0.13128611,-0.00009
 459,0.07716082,0.64370947,-0.00050527,0.00001387,-0.00000328,-0.073636
 95,-0.00004219,0.00004985,0.19843855,-0.00001148,-0.03293504,0.0235706
 1,-0.00003611,-0.11095293,0.04109529,-0.00026275,0.92319770,-0.0000066
 3,0.03994347,0.04369772,0.00006456,0.02798289,-0.21622289,0.,0.,0.5406
 5406,-0.00134679,-0.00000568,-0.00000489,0.00859269,0.00000153,0.00000
 880,-0.07363695,-0.00003611,-0.00006456,0.10577716,0.00000242,-0.01098
 573,-0.02155822,0.00000153,0.02671927,0.00880615,-0.00004219,-0.110952
 93,-0.02798289,0.00004616,0.80514961,0.00000163,0.00384286,-0.00267290
 ,-0.00000880,-0.00880615,-0.02916266,-0.00004985,-0.04109529,-0.216222
 89,0.00009459,-0.07716082,0.64370947,0.00586114,-0.00000015,0.00000036
 ,-0.00134679,0.00000242,-0.00000163,-0.00050527,-0.00001148,0.00000663
 ,-0.05272251,-0.00004964,-0.00001587,0.13261894,-0.00000015,0.02094761
 ,0.00941317,-0.00000568,-0.01098573,-0.00384286,0.00001387,-0.03293504
 ,-0.03994347,-0.00004226,-0.47097487,0.01806911,0.00007974,0.83313084,
 -0.00000036,-0.00941317,-0.07175167,0.00000489,0.02155822,-0.00267290,
 0.00000328,-0.02357061,0.04369772,-0.00002248,-0.01482774,-0.13128611,
 0.00004766,0.04903727,0.68646786,-0.04620113,-0.00000855,0.00000226,0.
 01015312,0.00000409,-0.00000434,-0.01015812,-0.00000263,0.,0.01015312,
 0.00000409,0.00000434,-0.04620113,-0.00000855,-0.00000226,0.06568627,-
 0.00000471,-0.17665944,-0.09813313,0.00000152,-0.04211069,-0.03782763,
 -0.00000469,0.01368578,0.,0.00000152,-0.04211070,0.03782763,-0.0000047
 1,-0.17665944,0.09813314,0.00000291,0.88541266,0.00000033,-0.06519236,
 -0.27285313,-0.00000627,-0.05307017,0.00698065,0.,0.,-0.05569703,0.000
 00627,0.05307017,0.00698065,-0.00000033,0.06519236,-0.27285313,0.,0.,0
 .69006104,-0.03770081,-0.00002013,0.00003864,0.00735933,-0.00000440,0.
 00000577,0.01121829,0.00000127,-0.00000326,-0.00118413,0.00000077,-0.0
 0000044,0.00348770,0.00000131,0.00000094,0.00098507,-0.00000296,-0.000
 00263,0.02499951,-0.00002141,-0.15088597,0.13675155,-0.00001090,-0.011
 32319,0.02672291,0.00000019,-0.00226364,-0.00502197,0.00000021,0.00047
 596,0.00025752,-0.00000026,-0.00221532,-0.00202080,0.00000140,0.012326
 90,-0.01936420,0.00002832,0.15379248,0.00003637,0.12848069,-0.24425793
 ,-0.00000183,-0.00125195,0.00608210,0.00000074,-0.00180611,0.00030241,
 0.00000020,0.00062066,0.00097706,0.00000082,-0.00615834,-0.00082100,0.
 00000415,0.01700124,-0.02700523,-0.00003924,-0.13853615,0.26453816,-0.
 00111718,-0.00000410,-0.00000226,-0.03101757,0.00001675,0.00002968,0.0
 0438877,0.00000661,0.00001190,0.00339874,-0.00000143,0.00000284,-0.000
 17639,-0.00000251,0.00000021,0.00904698,-0.00000005,-0.00000032,-0.005
 49227,0.,-0.00000034,0.02361534,0.00000319,-0.00937543,-0.02782994,0.0
 0001305,-0.11933412,-0.12010709,-0.00000327,0.01225702,0.01461228,-0.0
 0000015,-0.00182667,0.00290487,-0.00000003,-0.00055449,0.00086695,-0.0
 0000130,-0.00535514,0.00114338,0.00000119,0.00079430,0.00011572,-0.000
 01342,0.12262048,-0.00000147,0.00285494,0.00295104,0.00003885,-0.12319
 900,-0.27989762,0.00000295,-0.01805514,-0.01806278,0.00000226,0.003517
 96,-0.00372314,-0.00000006,0.00165333,-0.00071137,0.00000350,0.0015693
 6,0.00351717,-0.00000231,-0.00054797,0.00056159,-0.00004086,0.13190664
 ,0.29205994,-0.00017639,-0.00000251,-0.00000021,0.00339874,-0.00000143
 ,-0.00000284,0.00438877,0.00000661,-0.00001190,-0.03101757,0.00001675,
 -0.00002968,-0.00111718,-0.00000410,0.00000226,0.00904698,-0.00000005,
 0.00000032,-0.00069805,0.00000020,-0.00000019,-0.00099953,0.00000077,-
 0.00000087,0.02361534,-0.00000003,-0.00055449,-0.00086695,-0.00000015,
 -0.00182667,-0.00290487,-0.00000327,0.01225702,-0.01461228,0.00001305,
 -0.11933412,0.12010709,0.00000319,-0.00937543,0.02782994,-0.00000130,-
 0.00535514,-0.00114338,-0.00000003,0.00008264,0.00010485,0.00000077,0.
 00051037,-0.00080347,-0.00001342,0.12262048,0.00000006,-0.00165333,-0.
 00071137,-0.00000226,-0.00351796,-0.00372314,-0.00000295,0.01805514,-0
 .01806278,-0.00003885,0.12319900,-0.27989762,0.00000147,-0.00285494,0.
 00295104,-0.00000350,-0.00156936,0.00351717,0.00000032,0.00008680,0.00
 003042,0.00000087,0.00080347,-0.00101686,0.00004086,-0.13190664,0.2920
 5994,0.00348770,0.00000131,-0.00000094,-0.00118413,0.00000077,0.000000
 44,0.01121829,0.00000127,0.00000326,0.00735933,-0.00000440,-0.00000577
 ,-0.03770081,-0.00002013,-0.00003864,0.00098507,-0.00000296,0.00000263
 ,0.00109109,-0.00000025,-0.00000009,-0.00069805,-0.00000003,-0.0000003
 2,-0.00549227,0.00000119,0.00000231,0.02499951,-0.00000026,-0.00221532
 ,0.00202080,0.00000021,0.00047596,-0.00025752,0.00000019,-0.00226364,0
 .00502197,-0.00001090,-0.01132319,-0.02672291,-0.00002141,-0.15088597,
 -0.13675155,0.00000140,0.01232690,0.01936420,-0.00000025,0.00045310,0.
 00067863,0.00000020,0.00008264,-0.00008680,0.,0.00079430,0.00054797,0.
 00002832,0.15379248,-0.00000082,0.00615834,-0.00082100,-0.00000020,-0.
 00062066,0.00097706,-0.00000074,0.00180611,0.00030241,0.00000183,0.001
 25195,0.00608210,-0.00003637,-0.12848069,-0.24425793,-0.00000415,-0.01
 700124,-0.02700523,0.00000009,-0.00067863,-0.00109229,0.00000019,-0.00
 010485,0.00003042,0.00000034,-0.00011572,0.00056159,0.00003924,0.13853
 615,0.26453816,0.00394096,-0.00000610,-0.00000047,0.02155816,0.0000224
 4,-0.00000535,-0.07060677,0.00034528,0.,0.02155816,0.00002244,0.000005
 35,0.00394096,-0.00000610,0.00000047,0.00023903,0.00000306,0.,-0.00229
 673,0.00000153,-0.00000025,-0.00271798,0.00000060,-0.00000228,-0.00271
 798,0.00000060,0.00000228,-0.00229673,0.00000153,0.00000025,0.02977492
 ,0.00000133,0.01214941,0.00928180,0.00003189,-0.06767620,0.03244982,0.
 00032955,-0.66808865,0.,0.00003189,-0.06767620,-0.03244982,0.00000133,
 0.01214941,-0.00928179,0.00000272,-0.01057865,0.,-0.00000502,-0.002242
 82,0.00034800,-0.00000227,0.00054517,0.00081803,-0.00000227,0.00054517
 ,-0.00081803,-0.00000502,-0.00224282,-0.00034800,-0.00038488,0.7916531
 0,0.00000269,-0.00489024,-0.01488065,-0.00001747,0.05049042,0.01109760
 ,0.,0.,-0.10243399,0.00001747,-0.05049042,0.01109760,-0.00000269,0.004
 89023,-0.01488065,0.,0.,0.01414966,0.00000239,0.00191503,0.00025422,-0
 .00000145,-0.00302228,0.00404119,0.00000145,0.00302228,0.00404119,-0.0
 0000239,-0.00191503,0.00025422,0.,0.,0.08657144,-0.00613867,-0.0000054
 3,-0.00000403,0.00306877,0.00000351,-0.00000167,-0.00060335,-0.0000004
 7,0.,0.00306877,0.00000351,0.00000167,-0.00613867,-0.00000544,0.000004
 03,-0.00373525,0.00001113,0.,-0.00176899,0.00000097,-0.00000034,0.0017
 6915,-0.00000060,0.00000062,0.00176915,-0.00000060,-0.00000062,-0.0017
 6899,0.00000097,0.00000034,-0.00037601,0.00000075,0.,0.01085409,0.0000
 0099,-0.01164159,0.00155986,0.00000075,0.00283956,-0.00322590,0.000000
 69,-0.00100565,0.,0.00000075,0.00283956,0.00322590,0.00000099,-0.01164
 159,-0.00155986,0.00000573,-0.46492304,0.,-0.00000007,0.00100557,0.000
 40277,-0.00000054,-0.00036412,0.00037213,-0.00000054,-0.00036412,-0.00
 037213,-0.00000007,0.00100557,-0.00040277,-0.00000040,0.00146310,0.,-0
 .00000829,0.48078674,-0.00000003,-0.03302483,0.00611817,0.00000064,-0.
 00155420,-0.00588155,0.,0.,-0.00195196,-0.00000064,0.00155420,-0.00588
 155,0.00000003,0.03302483,0.00611817,0.,0.,-0.06979259,-0.00000026,0.0
 0043592,0.00043050,-0.00000046,-0.00128914,0.00025044,0.00000046,0.001
 28914,0.00025044,0.00000026,-0.00043592,0.00043050,0.,0.,0.00068818,0.
 ,0.,0.06922124\\-0.00000146,-0.00002168,-0.00004076,-0.00006338,-0.000
 07535,0.00006793,0.00019772,0.00021613,0.,-0.00006338,-0.00007535,-0.0
 0006793,-0.00000146,-0.00002168,0.00004076,-0.00001026,0.00000164,0.,0
 .00000682,0.00000403,0.00003512,0.00000069,0.00001656,0.00000580,0.000
 00069,0.00001656,-0.00000580,0.00000682,0.00000403,-0.00003512,-0.0000
 7469,-0.00006481,0.,0.00000189,-0.00000009,0.\\\@


 Life may have no meaning.  Or even worse, it may have a
 meaning of which I disapprove.
                                 -- Ashleigh Brilliant
 Job cpu time:       0 days  0 hours 41 minutes 21.3 seconds.
 File lengths (MBytes):  RWF=     65 Int=      0 D2E=      0 Chk=      7 Scr=      1
 Normal termination of Gaussian 09 at Fri Aug 27 21:29:08 2021.
