 Entering Gaussian System, Link 0=g09
 AtFile(1): pc-2.gbs
            -H     0
            S    4   1.00
                  0.754230D+02           0.240650D-02
                  0.113500D+02           0.184870D-01
                  0.259930D+01           0.897420D-01
                  0.735130D+00           0.281110D+00
            S    1   1.00
                  0.231670D+00           0.100000D+01
            S    1   1.00
                  0.741470D-01           0.100000D+01
            P    1   1.00
                  0.160000D+01           0.100000D+01
            P    1   1.00
                  0.450000D+00           0.100000D+01
            D    1   1.00
                  0.125000D+01           0.100000D+01
            ****
            -C     0
            S    7   1.00
                  0.785710D+04           0.568250D-03
                  0.117870D+04           0.439150D-02
                  0.268320D+03           0.225040D-01
                  0.759480D+02           0.866530D-01
                  0.245590D+02           0.244050D+00
                  0.862120D+01           0.441480D+00
                  0.312780D+01           0.353320D+00
            S    7   1.00
                  0.117870D+04          -0.594920D-06
                  0.268320D+03          -0.627480D-04
                  0.759480D+02          -0.757730D-03
                  0.245590D+02          -0.733080D-02
                  0.862120D+01          -0.389320D-01
                  0.312780D+01          -0.889080D-01
                  0.822020D+00           0.216890D+00
            S    1   1.00
                  0.330170D+00           0.100000D+01
            S    1   1.00
                  0.114630D+00           0.100000D+01
            P    4   1.00
                  0.337750D+02           0.602940D-02
                  0.767660D+01           0.432280D-01
                  0.223570D+01           0.163010D+00
                  0.764470D+00           0.365040D+00
            P    1   1.00
                  0.262320D+00           0.100000D+01
            P    1   1.00
                  0.846380D-01           0.100000D+01
            D    1   1.00
                  0.140000D+01           0.100000D+01
            D    1   1.00
                  0.450000D+00           0.100000D+01
            F    1   1.00
                  0.950000D+00           0.100000D+01
            ****
            -N     0
            S    7   1.00
                  0.111010D+05           0.545700D-03
                  0.166530D+04           0.421810D-02
                  0.379080D+03           0.216450D-01
                  0.107300D+03           0.837760D-01
                  0.347470D+02           0.238810D+00
                  0.122490D+02           0.439940D+00
                  0.447430D+01           0.363640D+00
            S    7   1.00
                  0.166530D+04          -0.150060D-05
                  0.379080D+03          -0.587530D-04
                  0.107300D+03          -0.774530D-03
                  0.347470D+02          -0.721610D-02
                  0.122490D+02          -0.393380D-01
                  0.447430D+01          -0.906110D-01
                  0.124040D+01           0.198820D+00
            S    1   1.00
                  0.487430D+00           0.100000D+01
            S    1   1.00
                  0.164840D+00           0.100000D+01
            P    4   1.00
                  0.479340D+02           0.617060D-02
                  0.109990D+02           0.442600D-01
                  0.324720D+01           0.168250D+00
                  0.111140D+01           0.368480D+00
            P    1   1.00
                  0.379880D+00           0.100000D+01
            P    1   1.00
                  0.120680D+00           0.100000D+01
            D    1   1.00
                  0.180000D+01           0.100000D+01
            D    1   1.00
                  0.550000D+00           0.100000D+01
            F    1   1.00
                  0.102000D+01           0.100000D+01
            ****
            -O     0
            S    7   1.00
                  0.147820D+05           0.535190D-03
                  0.221730D+04           0.413750D-02
                  0.504740D+03           0.212450D-01
                  0.142870D+03           0.824530D-01
                  0.463000D+02           0.236710D+00
                  0.163370D+02           0.440390D+00
                  0.598280D+01           0.364650D+00
            S    7   1.00
                  0.221730D+04          -0.192750D-05
                  0.504740D+03          -0.579640D-04
                  0.142870D+03          -0.794940D-03
                  0.463000D+02          -0.731250D-02
                  0.163370D+02          -0.405740D-01
                  0.598280D+01          -0.915940D-01
                  0.167180D+01           0.209400D+00
            S    1   1.00
                  0.646620D+00           0.100000D+01
            S    1   1.00
                  0.216690D+00           0.100000D+01
            P    4   1.00
                  0.604240D+02           0.689490D-02
                  0.139350D+02           0.490050D-01
                  0.415310D+01           0.182550D+00
                  0.141580D+01           0.376330D+00
            P    1   1.00
                  0.475490D+00           0.100000D+01
            P    1   1.00
                  0.145290D+00           0.100000D+01
            D    1   1.00
                  0.220000D+01           0.100000D+01
            D    1   1.00
                  0.650000D+00           0.100000D+01
            F    1   1.00
                  0.110000D+01           0.100000D+01
            ****
 Initial command:
 /public3/home/sc51754/softwares/g09e01/l1.exe "./Gau-8835.inp" -scrdir="./"
 Entering Link 1 = /public3/home/sc51754/softwares/g09e01/l1.exe PID=      8836.
  
 Copyright (c) 1988,1990,1992,1993,1995,1998,2003,2009,2015,
            Gaussian, Inc.  All Rights Reserved.
  
 This is part of the Gaussian(R) 09 program.  It is based on
 the Gaussian(R) 03 system (copyright 2003, Gaussian, Inc.),
 the Gaussian(R) 98 system (copyright 1998, Gaussian, Inc.),
 the Gaussian(R) 94 system (copyright 1995, Gaussian, Inc.),
 the Gaussian 92(TM) system (copyright 1992, Gaussian, Inc.),
 the Gaussian 90(TM) system (copyright 1990, Gaussian, Inc.),
 the Gaussian 88(TM) system (copyright 1988, Gaussian, Inc.),
 the Gaussian 86(TM) system (copyright 1986, Carnegie Mellon
 University), and the Gaussian 82(TM) system (copyright 1983,
 Carnegie Mellon University). Gaussian is a federally registered
 trademark of Gaussian, Inc.
  
 This software contains proprietary and confidential information,
 including trade secrets, belonging to Gaussian, Inc.
  
 This software is provided under written license and may be
 used, copied, transmitted, or stored only in accord with that
 written license.
  
 The following legend is applicable only to US Government
 contracts under FAR:
  
                    RESTRICTED RIGHTS LEGEND
  
 Use, reproduction and disclosure by the US Government is
 subject to restrictions as set forth in subparagraphs (a)
 and (c) of the Commercial Computer Software - Restricted
 Rights clause in FAR 52.227-19.
  
 Gaussian, Inc.
 340 Quinnipiac St., Bldg. 40, Wallingford CT 06492
  
  
 ---------------------------------------------------------------
 Warning -- This program may not be used in any manner that
 competes with the business of Gaussian, Inc. or will provide
 assistance to any competitor of Gaussian, Inc.  The licensee
 of this program is prohibited from giving any competitor of
 Gaussian, Inc. access to this program.  By using this program,
 the user acknowledges that Gaussian, Inc. is engaged in the
 business of creating and licensing software in the field of
 computational chemistry and represents and warrants to the
 licensee that it is not a competitor of Gaussian, Inc. and that
 it will not use this program in any manner prohibited above.
 ---------------------------------------------------------------
  

 Cite this work as:
 Gaussian 09, Revision E.01,
 M. J. Frisch, G. W. Trucks, H. B. Schlegel, G. E. Scuseria, 
 M. A. Robb, J. R. Cheeseman, G. Scalmani, V. Barone, B. Mennucci, 
 G. A. Petersson, H. Nakatsuji, M. Caricato, X. Li, H. P. Hratchian, 
 A. F. Izmaylov, J. Bloino, G. Zheng, J. L. Sonnenberg, M. Hada, 
 M. Ehara, K. Toyota, R. Fukuda, J. Hasegawa, M. Ishida, T. Nakajima, 
 Y. Honda, O. Kitao, H. Nakai, T. Vreven, J. A. Montgomery, Jr., 
 J. E. Peralta, F. Ogliaro, M. Bearpark, J. J. Heyd, E. Brothers, 
 K. N. Kudin, V. N. Staroverov, T. Keith, R. Kobayashi, J. Normand, 
 K. Raghavachari, A. Rendell, J. C. Burant, S. S. Iyengar, J. Tomasi, 
 M. Cossi, N. Rega, J. M. Millam, M. Klene, J. E. Knox, J. B. Cross, 
 V. Bakken, C. Adamo, J. Jaramillo, R. Gomperts, R. E. Stratmann, 
 O. Yazyev, A. J. Austin, R. Cammi, C. Pomelli, J. W. Ochterski, 
 R. L. Martin, K. Morokuma, V. G. Zakrzewski, G. A. Voth, 
 P. Salvador, J. J. Dannenberg, S. Dapprich, A. D. Daniels, 
 O. Farkas, J. B. Foresman, J. V. Ortiz, J. Cioslowski, 
 and D. J. Fox, Gaussian, Inc., Wallingford CT, 2013.
 
 ******************************************
 Gaussian 09:  EM64L-G09RevE.01 30-Nov-2015
                27-Aug-2021 
 ******************************************
 %nprocshared=64
 Will use up to   64 processors via shared memory.
 %mem=128GB
 %chk=4PY_M062X_PC2_OPT_FREQ.chk
 ---------------------
 #p opt freq M062X/gen
 ---------------------
 1/14=-1,18=20,19=15,26=3,38=1/1,3;
 2/9=110,12=2,17=6,18=5,40=1/2;
 3/5=7,11=2,16=1,25=1,30=1,71=1,74=-55/1,2,3;
 4//1;
 5/5=2,38=5/2;
 6/7=2,8=2,9=2,10=2,28=1/1;
 7//1,2,3,16;
 1/14=-1,18=20,19=15,26=3/3(2);
 2/9=110/2;
 99//99;
 2/9=110/2;
 3/5=7,6=1,11=2,16=1,25=1,30=1,71=1,74=-55,82=7/1,2,3;
 4/5=5,16=3,69=1/1;
 5/5=2,38=5/2;
 7//1,2,3,16;
 1/14=-1,18=20,19=15,26=3/3(-5);
 2/9=110/2;
 6/7=2,8=2,9=2,10=2,19=2,28=1/1;
 99/9=1/99;
 Leave Link    1 at Fri Aug 27 21:29:08 2021, MaxMem= 17179869184 cpu:         5.7
 (Enter /public3/home/sc51754/softwares/g09e01/l101.exe)
 ----------------------
 4PY_M062X_PC2_OPT_FREQ
 ----------------------
 Symbolic Z-matrix:
 Charge =  0 Multiplicity = 1
 C                    -0.00018  -1.04887   1.19382 
 C                    -0.00018   0.30655   1.22857 
 C                     0.00022   1.11152   0. 
 C                    -0.00018   0.30655  -1.22857 
 C                    -0.00018  -1.04887  -1.19382 
 N                     0.00002  -1.72968   0. 
 H                    -0.00063  -1.66693   2.08522 
 H                    -0.00059   0.82774   2.17893 
 H                    -0.00059   0.82774  -2.17893 
 H                    -0.00063  -1.66693  -2.08522 
 O                     0.0006    2.34525   0. 
 H                     0.00063  -2.73716   0. 
 
 NAtoms=     12 NQM=       12 NQMF=       0 NMMI=      0 NMMIF=      0
                NMic=       0 NMicF=      0.
                    Isotopes and Nuclear Properties:
 (Nuclear quadrupole moments (NQMom) in fm**2, nuclear magnetic moments (NMagM)
  in nuclear magnetons)

  Atom         1           2           3           4           5           6           7           8           9          10
 IAtWgt=          12          12          12          12          12          14           1           1           1           1
 AtmWgt=  12.0000000  12.0000000  12.0000000  12.0000000  12.0000000  14.0030740   1.0078250   1.0078250   1.0078250   1.0078250
 NucSpn=           0           0           0           0           0           2           1           1           1           1
 AtZEff=   0.0000000   0.0000000   0.0000000   0.0000000   0.0000000   0.0000000   0.0000000   0.0000000   0.0000000   0.0000000
 NQMom=    0.0000000   0.0000000   0.0000000   0.0000000   0.0000000   2.0440000   0.0000000   0.0000000   0.0000000   0.0000000
 NMagM=    0.0000000   0.0000000   0.0000000   0.0000000   0.0000000   0.4037610   2.7928460   2.7928460   2.7928460   2.7928460
 AtZNuc=   6.0000000   6.0000000   6.0000000   6.0000000   6.0000000   7.0000000   1.0000000   1.0000000   1.0000000   1.0000000

  Atom        11          12
 IAtWgt=          16           1
 AtmWgt=  15.9949146   1.0078250
 NucSpn=           0           1
 AtZEff=   0.0000000   0.0000000
 NQMom=    0.0000000   0.0000000
 NMagM=    0.0000000   2.7928460
 AtZNuc=   8.0000000   1.0000000
 Leave Link  101 at Fri Aug 27 21:29:09 2021, MaxMem= 17179869184 cpu:         6.5
 (Enter /public3/home/sc51754/softwares/g09e01/l103.exe)

 GradGradGradGradGradGradGradGradGradGradGradGradGradGradGradGradGradGrad
 Berny optimization.
 Initialization pass.
                           ----------------------------
                           !    Initial Parameters    !
                           ! (Angstroms and Degrees)  !
 --------------------------                            --------------------------
 ! Name  Definition              Value          Derivative Info.                !
 --------------------------------------------------------------------------------
 ! R1    R(1,2)                  1.3559         estimate D2E/DX2                !
 ! R2    R(1,6)                  1.3743         estimate D2E/DX2                !
 ! R3    R(1,7)                  1.0847         estimate D2E/DX2                !
 ! R4    R(2,3)                  1.4688         estimate D2E/DX2                !
 ! R5    R(2,8)                  1.0839         estimate D2E/DX2                !
 ! R6    R(3,4)                  1.4688         estimate D2E/DX2                !
 ! R7    R(3,11)                 1.2337         estimate D2E/DX2                !
 ! R8    R(4,5)                  1.3559         estimate D2E/DX2                !
 ! R9    R(4,9)                  1.0839         estimate D2E/DX2                !
 ! R10   R(5,6)                  1.3743         estimate D2E/DX2                !
 ! R11   R(5,10)                 1.0847         estimate D2E/DX2                !
 ! R12   R(6,12)                 1.0075         estimate D2E/DX2                !
 ! A1    A(2,1,6)              121.1639         estimate D2E/DX2                !
 ! A2    A(2,1,7)              123.267          estimate D2E/DX2                !
 ! A3    A(6,1,7)              115.5691         estimate D2E/DX2                !
 ! A4    A(1,2,3)              121.7645         estimate D2E/DX2                !
 ! A5    A(1,2,8)              120.2096         estimate D2E/DX2                !
 ! A6    A(3,2,8)              118.0259         estimate D2E/DX2                !
 ! A7    A(2,3,4)              113.5338         estimate D2E/DX2                !
 ! A8    A(2,3,11)             123.2331         estimate D2E/DX2                !
 ! A9    A(4,3,11)             123.2331         estimate D2E/DX2                !
 ! A10   A(3,4,5)              121.7645         estimate D2E/DX2                !
 ! A11   A(3,4,9)              118.0259         estimate D2E/DX2                !
 ! A12   A(5,4,9)              120.2096         estimate D2E/DX2                !
 ! A13   A(4,5,6)              121.1639         estimate D2E/DX2                !
 ! A14   A(4,5,10)             123.267          estimate D2E/DX2                !
 ! A15   A(6,5,10)             115.5691         estimate D2E/DX2                !
 ! A16   A(1,6,5)              120.6094         estimate D2E/DX2                !
 ! A17   A(1,6,12)             119.6953         estimate D2E/DX2                !
 ! A18   A(5,6,12)             119.6953         estimate D2E/DX2                !
 ! D1    D(6,1,2,3)             -0.0087         estimate D2E/DX2                !
 ! D2    D(6,1,2,8)            179.9852         estimate D2E/DX2                !
 ! D3    D(7,1,2,3)           -179.9904         estimate D2E/DX2                !
 ! D4    D(7,1,2,8)              0.0035         estimate D2E/DX2                !
 ! D5    D(2,1,6,5)             -0.0199         estimate D2E/DX2                !
 ! D6    D(2,1,6,12)           179.9596         estimate D2E/DX2                !
 ! D7    D(7,1,6,5)            179.9631         estimate D2E/DX2                !
 ! D8    D(7,1,6,12)            -0.0574         estimate D2E/DX2                !
 ! D9    D(1,2,3,4)              0.0339         estimate D2E/DX2                !
 ! D10   D(1,2,3,11)          -179.9797         estimate D2E/DX2                !
 ! D11   D(8,2,3,4)           -179.9602         estimate D2E/DX2                !
 ! D12   D(8,2,3,11)             0.0262         estimate D2E/DX2                !
 ! D13   D(2,3,4,5)             -0.0339         estimate D2E/DX2                !
 ! D14   D(2,3,4,9)            179.9602         estimate D2E/DX2                !
 ! D15   D(11,3,4,5)           179.9797         estimate D2E/DX2                !
 ! D16   D(11,3,4,9)            -0.0262         estimate D2E/DX2                !
 ! D17   D(3,4,5,6)              0.0087         estimate D2E/DX2                !
 ! D18   D(3,4,5,10)           179.9904         estimate D2E/DX2                !
 ! D19   D(9,4,5,6)           -179.9852         estimate D2E/DX2                !
 ! D20   D(9,4,5,10)            -0.0035         estimate D2E/DX2                !
 ! D21   D(4,5,6,1)              0.0199         estimate D2E/DX2                !
 ! D22   D(4,5,6,12)          -179.9596         estimate D2E/DX2                !
 ! D23   D(10,5,6,1)          -179.9631         estimate D2E/DX2                !
 ! D24   D(10,5,6,12)            0.0574         estimate D2E/DX2                !
 --------------------------------------------------------------------------------
 Trust Radius=3.00D-01 FncErr=1.00D-07 GrdErr=1.00D-06
 Number of steps in this run=     64 maximum allowed number of steps=    100.
 GradGradGradGradGradGradGradGradGradGradGradGradGradGradGradGradGradGrad

 Leave Link  103 at Fri Aug 27 21:29:09 2021, MaxMem= 17179869184 cpu:         0.2
 (Enter /public3/home/sc51754/softwares/g09e01/l202.exe)
                          Input orientation:                          
 ---------------------------------------------------------------------
 Center     Atomic      Atomic             Coordinates (Angstroms)
 Number     Number       Type             X           Y           Z
 ---------------------------------------------------------------------
      1          6           0       -0.000184   -1.048866    1.193818
      2          6           0       -0.000184    0.306549    1.228568
      3          6           0        0.000221    1.111516    0.000000
      4          6           0       -0.000184    0.306549   -1.228568
      5          6           0       -0.000184   -1.048866   -1.193818
      6          7           0        0.000018   -1.729678    0.000000
      7          1           0       -0.000630   -1.666925    2.085223
      8          1           0       -0.000587    0.827738    2.178925
      9          1           0       -0.000587    0.827738   -2.178925
     10          1           0       -0.000630   -1.666925   -2.085223
     11          8           0        0.000597    2.345248    0.000000
     12          1           0        0.000630   -2.737158    0.000000
 ---------------------------------------------------------------------
                    Distance matrix (angstroms):
                    1          2          3          4          5
     1  C    0.000000
     2  C    1.355860   0.000000
     3  C    2.468289   1.468792   0.000000
     4  C    2.775807   2.457136   1.468792   0.000000
     5  C    2.387636   2.775807   2.468289   1.355860   0.000000
     6  N    1.374302   2.378150   2.841194   2.378150   1.374302
     7  H    1.084712   2.151385   3.473887   3.856917   3.336781
     8  H    2.119452   1.083890   2.197327   3.447122   3.859668
     9  H    3.859668   3.447122   2.197327   1.083890   2.119452
    10  H    3.336781   3.856917   3.473887   2.151385   1.084712
    11  O    3.597946   2.380268   1.233732   2.380268   3.597946
    12  H    2.067736   3.282306   3.848674   3.282306   2.067736
                    6          7          8          9         10
     6  N    0.000000
     7  H    2.086167   0.000000
     8  H    3.359775   2.496422   0.000000
     9  H    3.359775   4.940273   4.357850   0.000000
    10  H    2.086167   4.170446   4.940273   2.496422   0.000000
    11  O    4.074926   4.521691   2.655288   2.655288   4.521691
    12  H    1.007480   2.343833   4.178062   4.178062   2.343833
                   11         12
    11  O    0.000000
    12  H    5.082406   0.000000
 Stoichiometry    C5H5NO
 Framework group  CS[SG(CHNO),X(C4H4)]
 Deg. of freedom    17
 Full point group                 CS      NOp   2
 Largest Abelian subgroup         CS      NOp   2
 Largest concise Abelian subgroup CS      NOp   2
                         Standard orientation:                         
 ---------------------------------------------------------------------
 Center     Atomic      Atomic             Coordinates (Angstroms)
 Number     Number       Type             X           Y           Z
 ---------------------------------------------------------------------
      1          6           0        0.000184    1.048866    1.193818
      2          6           0        0.000184   -0.306549    1.228568
      3          6           0       -0.000221   -1.111516   -0.000000
      4          6           0        0.000184   -0.306549   -1.228568
      5          6           0        0.000184    1.048866   -1.193818
      6          7           0       -0.000018    1.729678    0.000000
      7          1           0        0.000630    1.666925    2.085223
      8          1           0        0.000587   -0.827738    2.178925
      9          1           0        0.000587   -0.827738   -2.178925
     10          1           0        0.000630    1.666925   -2.085223
     11          8           0       -0.000597   -2.345248   -0.000000
     12          1           0       -0.000630    2.737158    0.000000
 ---------------------------------------------------------------------
 Rotational constants (GHZ):      5.6935111      2.6926956      1.8281082
 Leave Link  202 at Fri Aug 27 21:29:09 2021, MaxMem= 17179869184 cpu:         6.0
 (Enter /public3/home/sc51754/softwares/g09e01/l301.exe)
 General basis read from cards:  (5D, 7F)
 Centers:       7      8      9     10     12
 S 4 1.00
     Exponent=  7.5423000000D+01 Coefficients=  2.4065000000D-03
     Exponent=  1.1350000000D+01 Coefficients=  1.8487000000D-02
     Exponent=  2.5993000000D+00 Coefficients=  8.9742000000D-02
     Exponent=  7.3513000000D-01 Coefficients=  2.8111000000D-01
 S 1 1.00
     Exponent=  2.3167000000D-01 Coefficients=  1.0000000000D+00
 S 1 1.00
     Exponent=  7.4147000000D-02 Coefficients=  1.0000000000D+00
 P 1 1.00
     Exponent=  1.6000000000D+00 Coefficients=  1.0000000000D+00
 P 1 1.00
     Exponent=  4.5000000000D-01 Coefficients=  1.0000000000D+00
 D 1 1.00
     Exponent=  1.2500000000D+00 Coefficients=  1.0000000000D+00
 ****
 Centers:       1      2      3      4      5
 S 7 1.00
     Exponent=  7.8571000000D+03 Coefficients=  5.6825000000D-04
     Exponent=  1.1787000000D+03 Coefficients=  4.3915000000D-03
     Exponent=  2.6832000000D+02 Coefficients=  2.2504000000D-02
     Exponent=  7.5948000000D+01 Coefficients=  8.6653000000D-02
     Exponent=  2.4559000000D+01 Coefficients=  2.4405000000D-01
     Exponent=  8.6212000000D+00 Coefficients=  4.4148000000D-01
     Exponent=  3.1278000000D+00 Coefficients=  3.5332000000D-01
 S 7 1.00
     Exponent=  1.1787000000D+03 Coefficients= -5.9492000000D-07
     Exponent=  2.6832000000D+02 Coefficients= -6.2748000000D-05
     Exponent=  7.5948000000D+01 Coefficients= -7.5773000000D-04
     Exponent=  2.4559000000D+01 Coefficients= -7.3308000000D-03
     Exponent=  8.6212000000D+00 Coefficients= -3.8932000000D-02
     Exponent=  3.1278000000D+00 Coefficients= -8.8908000000D-02
     Exponent=  8.2202000000D-01 Coefficients=  2.1689000000D-01
 S 1 1.00
     Exponent=  3.3017000000D-01 Coefficients=  1.0000000000D+00
 S 1 1.00
     Exponent=  1.1463000000D-01 Coefficients=  1.0000000000D+00
 P 4 1.00
     Exponent=  3.3775000000D+01 Coefficients=  6.0294000000D-03
     Exponent=  7.6766000000D+00 Coefficients=  4.3228000000D-02
     Exponent=  2.2357000000D+00 Coefficients=  1.6301000000D-01
     Exponent=  7.6447000000D-01 Coefficients=  3.6504000000D-01
 P 1 1.00
     Exponent=  2.6232000000D-01 Coefficients=  1.0000000000D+00
 P 1 1.00
     Exponent=  8.4638000000D-02 Coefficients=  1.0000000000D+00
 D 1 1.00
     Exponent=  1.4000000000D+00 Coefficients=  1.0000000000D+00
 D 1 1.00
     Exponent=  4.5000000000D-01 Coefficients=  1.0000000000D+00
 F 1 1.00
     Exponent=  9.5000000000D-01 Coefficients=  1.0000000000D+00
 ****
 Centers:       6
 S 7 1.00
     Exponent=  1.1101000000D+04 Coefficients=  5.4570000000D-04
     Exponent=  1.6653000000D+03 Coefficients=  4.2181000000D-03
     Exponent=  3.7908000000D+02 Coefficients=  2.1645000000D-02
     Exponent=  1.0730000000D+02 Coefficients=  8.3776000000D-02
     Exponent=  3.4747000000D+01 Coefficients=  2.3881000000D-01
     Exponent=  1.2249000000D+01 Coefficients=  4.3994000000D-01
     Exponent=  4.4743000000D+00 Coefficients=  3.6364000000D-01
 S 7 1.00
     Exponent=  1.6653000000D+03 Coefficients= -1.5006000000D-06
     Exponent=  3.7908000000D+02 Coefficients= -5.8753000000D-05
     Exponent=  1.0730000000D+02 Coefficients= -7.7453000000D-04
     Exponent=  3.4747000000D+01 Coefficients= -7.2161000000D-03
     Exponent=  1.2249000000D+01 Coefficients= -3.9338000000D-02
     Exponent=  4.4743000000D+00 Coefficients= -9.0611000000D-02
     Exponent=  1.2404000000D+00 Coefficients=  1.9882000000D-01
 S 1 1.00
     Exponent=  4.8743000000D-01 Coefficients=  1.0000000000D+00
 S 1 1.00
     Exponent=  1.6484000000D-01 Coefficients=  1.0000000000D+00
 P 4 1.00
     Exponent=  4.7934000000D+01 Coefficients=  6.1706000000D-03
     Exponent=  1.0999000000D+01 Coefficients=  4.4260000000D-02
     Exponent=  3.2472000000D+00 Coefficients=  1.6825000000D-01
     Exponent=  1.1114000000D+00 Coefficients=  3.6848000000D-01
 P 1 1.00
     Exponent=  3.7988000000D-01 Coefficients=  1.0000000000D+00
 P 1 1.00
     Exponent=  1.2068000000D-01 Coefficients=  1.0000000000D+00
 D 1 1.00
     Exponent=  1.8000000000D+00 Coefficients=  1.0000000000D+00
 D 1 1.00
     Exponent=  5.5000000000D-01 Coefficients=  1.0000000000D+00
 F 1 1.00
     Exponent=  1.0200000000D+00 Coefficients=  1.0000000000D+00
 ****
 Centers:      11
 S 7 1.00
     Exponent=  1.4782000000D+04 Coefficients=  5.3519000000D-04
     Exponent=  2.2173000000D+03 Coefficients=  4.1375000000D-03
     Exponent=  5.0474000000D+02 Coefficients=  2.1245000000D-02
     Exponent=  1.4287000000D+02 Coefficients=  8.2453000000D-02
     Exponent=  4.6300000000D+01 Coefficients=  2.3671000000D-01
     Exponent=  1.6337000000D+01 Coefficients=  4.4039000000D-01
     Exponent=  5.9828000000D+00 Coefficients=  3.6465000000D-01
 S 7 1.00
     Exponent=  2.2173000000D+03 Coefficients= -1.9275000000D-06
     Exponent=  5.0474000000D+02 Coefficients= -5.7964000000D-05
     Exponent=  1.4287000000D+02 Coefficients= -7.9494000000D-04
     Exponent=  4.6300000000D+01 Coefficients= -7.3125000000D-03
     Exponent=  1.6337000000D+01 Coefficients= -4.0574000000D-02
     Exponent=  5.9828000000D+00 Coefficients= -9.1594000000D-02
     Exponent=  1.6718000000D+00 Coefficients=  2.0940000000D-01
 S 1 1.00
     Exponent=  6.4662000000D-01 Coefficients=  1.0000000000D+00
 S 1 1.00
     Exponent=  2.1669000000D-01 Coefficients=  1.0000000000D+00
 P 4 1.00
     Exponent=  6.0424000000D+01 Coefficients=  6.8949000000D-03
     Exponent=  1.3935000000D+01 Coefficients=  4.9005000000D-02
     Exponent=  4.1531000000D+00 Coefficients=  1.8255000000D-01
     Exponent=  1.4158000000D+00 Coefficients=  3.7633000000D-01
 P 1 1.00
     Exponent=  4.7549000000D-01 Coefficients=  1.0000000000D+00
 P 1 1.00
     Exponent=  1.4529000000D-01 Coefficients=  1.0000000000D+00
 D 1 1.00
     Exponent=  2.2000000000D+00 Coefficients=  1.0000000000D+00
 D 1 1.00
     Exponent=  6.5000000000D-01 Coefficients=  1.0000000000D+00
 F 1 1.00
     Exponent=  1.1000000000D+00 Coefficients=  1.0000000000D+00
 ****
 Ernie: Thresh=  0.10000D-02 Tol=  0.10000D-05 Strict=F.
 Ernie:  7 primitive shells out of 220 were deleted.
 There are   183 symmetry adapted cartesian basis functions of A'  symmetry.
 There are   137 symmetry adapted cartesian basis functions of A"  symmetry.
 There are   158 symmetry adapted basis functions of A'  symmetry.
 There are   122 symmetry adapted basis functions of A"  symmetry.
   280 basis functions,   475 primitive gaussians,   320 cartesian basis functions
    25 alpha electrons       25 beta electrons
       nuclear repulsion energy       273.2804388411 Hartrees.
 IExCor= 4336 DFT=T Ex+Corr=M062X ExCW=0 ScaHFX=  0.540000
 ScaDFX=  1.000000  1.000000  1.000000  1.000000 ScalE2=  1.000000  1.000000
 IRadAn=      0 IRanWt=     -1 IRanGd=            0 ICorTp=0 IEmpDi=  4
 NAtoms=   12 NActive=   12 NUniq=    8 SFac= 2.25D+00 NAtFMM=   60 NAOKFM=F Big=F
 Integral buffers will be    131072 words long.
 Raffenetti 2 integral format.
 Two-electron integral symmetry is turned on.
 Leave Link  301 at Fri Aug 27 21:29:09 2021, MaxMem= 17179869184 cpu:         1.8
 (Enter /public3/home/sc51754/softwares/g09e01/l302.exe)
 NPDir=0 NMtPBC=     1 NCelOv=     1 NCel=       1 NClECP=     1 NCelD=      1
         NCelK=      1 NCelE2=     1 NClLst=     1 CellRange=     0.0.
 One-electron integrals computed using PRISM.
 One-electron integral symmetry used in STVInt
 NBasis=   280 RedAO= T EigKep=  1.83D-04  NBF=   158   122
 NBsUse=   280 1.00D-06 EigRej= -1.00D+00 NBFU=   158   122
 Precomputing XC quadrature grid using
 IXCGrd= 4 IRadAn=           0 IRanWt=          -1 IRanGd=           0 AccXCQ= 0.00D+00.
 Generated NRdTot=       0 NPtTot=           0 NUsed=           0 NTot=          32
 NSgBfM=   320   320   320   320   320 MxSgAt=    12 MxSgA2=    12.
 Leave Link  302 at Fri Aug 27 21:29:10 2021, MaxMem= 17179869184 cpu:        34.1
 (Enter /public3/home/sc51754/softwares/g09e01/l303.exe)
 DipDrv:  MaxL=1.
 Leave Link  303 at Fri Aug 27 21:29:10 2021, MaxMem= 17179869184 cpu:         5.8
 (Enter /public3/home/sc51754/softwares/g09e01/l401.exe)
 ExpMin= 7.41D-02 ExpMax= 1.48D+04 ExpMxC= 5.05D+02 IAcc=2 IRadAn=         4 AccDes= 0.00D+00
 Harris functional with IExCor= 1009 and IRadAn=       4 diagonalized for initial guess.
 HarFok:  IExCor= 1009 AccDes= 0.00D+00 IRadAn=         4 IDoV= 1 UseB2=F ITyADJ=14
 ICtDFT=  3500011 ScaDFX=  1.000000  1.000000  1.000000  1.000000
 FoFCou: FMM=F IPFlag=           0 FMFlag=      100000 FMFlg1=           0
         NFxFlg=           0 DoJE=T BraDBF=F KetDBF=T FulRan=T
         wScrn=  0.000000 ICntrl=     500 IOpCl=  0 I1Cent=   200000004 NGrid=           0
         NMat0=    1 NMatS0=      1 NMatT0=    0 NMatD0=    1 NMtDS0=    0 NMtDT0=    0
 Petite list used in FoFCou.
 Harris En= -323.373742033016    
 JPrj=0 DoOrth=F DoCkMO=F.
 Initial guess orbital symmetries:
       Occupied  (A') (A') (A") (A') (A") (A') (A') (A') (A') (A')
                 (A") (A") (A') (A') (A") (A') (A') (A") (A') (A')
                 (A") (A') (A") (A") (A')
       Virtual   (A') (A") (A') (A') (A") (A') (A') (A") (A') (A')
                 (A") (A') (A') (A") (A") (A") (A') (A') (A") (A')
                 (A") (A') (A") (A') (A') (A') (A") (A') (A") (A')
                 (A') (A") (A') (A') (A') (A") (A') (A") (A") (A')
                 (A") (A') (A') (A') (A") (A") (A') (A") (A") (A')
                 (A') (A") (A") (A') (A') (A') (A') (A") (A') (A')
                 (A') (A") (A') (A') (A") (A") (A') (A') (A") (A')
                 (A") (A") (A") (A') (A") (A') (A') (A") (A') (A")
                 (A') (A') (A") (A") (A') (A') (A') (A') (A") (A')
                 (A") (A") (A') (A") (A") (A') (A') (A") (A') (A')
                 (A") (A') (A") (A") (A') (A") (A') (A') (A") (A')
                 (A') (A") (A') (A") (A") (A') (A') (A') (A") (A")
                 (A") (A') (A') (A") (A') (A") (A') (A") (A") (A')
                 (A') (A") (A') (A") (A') (A') (A') (A") (A') (A')
                 (A") (A") (A") (A') (A") (A') (A') (A') (A') (A")
                 (A') (A") (A') (A') (A") (A") (A') (A") (A") (A')
                 (A') (A") (A') (A") (A') (A') (A") (A") (A") (A")
                 (A') (A') (A") (A') (A') (A") (A") (A') (A') (A')
                 (A") (A') (A") (A') (A") (A') (A') (A") (A') (A")
                 (A") (A") (A') (A') (A") (A') (A") (A') (A") (A')
                 (A') (A') (A') (A") (A") (A") (A") (A') (A') (A')
                 (A') (A') (A") (A") (A") (A') (A") (A') (A") (A')
                 (A') (A") (A") (A') (A") (A") (A') (A") (A') (A")
                 (A') (A') (A") (A') (A') (A') (A") (A") (A") (A')
                 (A') (A') (A") (A') (A") (A') (A') (A") (A') (A')
                 (A") (A') (A") (A') (A')
 The electronic state of the initial guess is 1-A'.
 Leave Link  401 at Fri Aug 27 21:29:11 2021, MaxMem= 17179869184 cpu:        46.4
 (Enter /public3/home/sc51754/softwares/g09e01/l502.exe)
 Closed shell SCF:
 Using DIIS extrapolation, IDIIS=  1040.
 Integral symmetry usage will be decided dynamically.
 Keep R1 ints in memory in symmetry-blocked form, NReq=1161351758.
 IVT=      348938 IEndB=      348938 NGot= 17179869184 MDV= 16792355177
 LenX= 16792355177 LenY= 16792252336
 Requested convergence on RMS density matrix=1.00D-08 within 128 cycles.
 Requested convergence on MAX density matrix=1.00D-06.
 Requested convergence on             energy=1.00D-06.
 No special actions if energy rises.
 FoFCou: FMM=F IPFlag=           0 FMFlag=           0 FMFlg1=           0
         NFxFlg=           0 DoJE=F BraDBF=F KetDBF=F FulRan=T
         wScrn=  0.000000 ICntrl=     600 IOpCl=  0 I1Cent=           0 NGrid=           0
         NMat0=    1 NMatS0=  39340 NMatT0=    0 NMatD0=    1 NMtDS0=    0 NMtDT0=    0
 Petite list used in FoFCou.
 Integral accuracy reduced to 1.0D-05 until final iterations.

 Cycle   1  Pass 0  IDiag  1:
 E= -323.294183973673    
 DIIS: error= 3.18D-02 at cycle   1 NSaved=   1.
 NSaved= 1 IEnMin= 1 EnMin= -323.294183973673     IErMin= 1 ErrMin= 3.18D-02
 ErrMax= 3.18D-02  0.00D+00 EMaxC= 1.00D-01 BMatC= 2.40D-01 BMatP= 2.40D-01
 IDIUse=3 WtCom= 6.82D-01 WtEn= 3.18D-01
 Coeff-Com:  0.100D+01
 Coeff-En:   0.100D+01
 Coeff:      0.100D+01
 Gap=     0.168 Goal=   None    Shift=    0.000
 GapD=    0.168 DampG=1.000 DampE=0.500 DampFc=0.5000 IDamp=-1.
 Damping current iteration by 5.00D-01
 RMSDP=4.42D-03 MaxDP=1.92D-01              OVMax= 3.74D-01

 Cycle   2  Pass 0  IDiag  1:
 E= -323.377929670494     Delta-E=       -0.083745696821 Rises=F Damp=T
 DIIS: error= 1.25D-02 at cycle   2 NSaved=   2.
 NSaved= 2 IEnMin= 2 EnMin= -323.377929670494     IErMin= 2 ErrMin= 1.25D-02
 ErrMax= 1.25D-02  0.00D+00 EMaxC= 1.00D-01 BMatC= 2.99D-02 BMatP= 2.40D-01
 IDIUse=3 WtCom= 8.75D-01 WtEn= 1.25D-01
 Coeff-Com:  0.806D-01 0.919D+00
 Coeff-En:   0.152D+00 0.848D+00
 Coeff:      0.895D-01 0.911D+00
 Gap=     0.299 Goal=   None    Shift=    0.000
 RMSDP=1.55D-03 MaxDP=6.37D-02 DE=-8.37D-02 OVMax= 2.47D-01

 Cycle   3  Pass 0  IDiag  1:
 E= -323.486707210587     Delta-E=       -0.108777540093 Rises=F Damp=F
 DIIS: error= 1.01D-02 at cycle   3 NSaved=   3.
 NSaved= 3 IEnMin= 3 EnMin= -323.486707210587     IErMin= 3 ErrMin= 1.01D-02
 ErrMax= 1.01D-02  0.00D+00 EMaxC= 1.00D-01 BMatC= 2.08D-02 BMatP= 2.99D-02
 IDIUse=3 WtCom= 8.99D-01 WtEn= 1.01D-01
 Coeff-Com: -0.513D-01 0.464D+00 0.587D+00
 Coeff-En:   0.000D+00 0.000D+00 0.100D+01
 Coeff:     -0.461D-01 0.417D+00 0.629D+00
 Gap=     0.287 Goal=   None    Shift=    0.000
 RMSDP=4.88D-04 MaxDP=2.25D-02 DE=-1.09D-01 OVMax= 8.28D-02

 Cycle   4  Pass 0  IDiag  1:
 E= -323.502901742750     Delta-E=       -0.016194532162 Rises=F Damp=F
 DIIS: error= 3.74D-03 at cycle   4 NSaved=   4.
 NSaved= 4 IEnMin= 4 EnMin= -323.502901742750     IErMin= 4 ErrMin= 3.74D-03
 ErrMax= 3.74D-03  0.00D+00 EMaxC= 1.00D-01 BMatC= 3.03D-03 BMatP= 2.08D-02
 IDIUse=3 WtCom= 9.63D-01 WtEn= 3.74D-02
 Coeff-Com: -0.171D-01 0.502D-01 0.300D+00 0.667D+00
 Coeff-En:   0.000D+00 0.000D+00 0.999D-01 0.900D+00
 Coeff:     -0.165D-01 0.483D-01 0.292D+00 0.676D+00
 Gap=     0.290 Goal=   None    Shift=    0.000
 RMSDP=1.72D-04 MaxDP=4.65D-03 DE=-1.62D-02 OVMax= 1.35D-02

 Cycle   5  Pass 0  IDiag  1:
 E= -323.505512166492     Delta-E=       -0.002610423742 Rises=F Damp=F
 DIIS: error= 4.46D-04 at cycle   5 NSaved=   5.
 NSaved= 5 IEnMin= 5 EnMin= -323.505512166492     IErMin= 5 ErrMin= 4.46D-04
 ErrMax= 4.46D-04  0.00D+00 EMaxC= 1.00D-01 BMatC= 6.27D-05 BMatP= 3.03D-03
 IDIUse=3 WtCom= 9.96D-01 WtEn= 4.46D-03
 Coeff-Com: -0.276D-02-0.488D-02 0.714D-01 0.223D+00 0.713D+00
 Coeff-En:   0.000D+00 0.000D+00 0.000D+00 0.000D+00 0.100D+01
 Coeff:     -0.275D-02-0.486D-02 0.710D-01 0.222D+00 0.714D+00
 Gap=     0.290 Goal=   None    Shift=    0.000
 RMSDP=3.49D-05 MaxDP=1.15D-03 DE=-2.61D-03 OVMax= 4.08D-03

 Cycle   6  Pass 0  IDiag  1:
 E= -323.505566523258     Delta-E=       -0.000054356766 Rises=F Damp=F
 DIIS: error= 2.86D-04 at cycle   6 NSaved=   6.
 NSaved= 6 IEnMin= 6 EnMin= -323.505566523258     IErMin= 6 ErrMin= 2.86D-04
 ErrMax= 2.86D-04  0.00D+00 EMaxC= 1.00D-01 BMatC= 2.01D-05 BMatP= 6.27D-05
 IDIUse=3 WtCom= 9.97D-01 WtEn= 2.86D-03
 Coeff-Com:  0.913D-03-0.793D-02 0.811D-02 0.444D-01 0.374D+00 0.581D+00
 Coeff-En:   0.000D+00 0.000D+00 0.000D+00 0.000D+00 0.471D-01 0.953D+00
 Coeff:      0.910D-03-0.791D-02 0.809D-02 0.443D-01 0.373D+00 0.582D+00
 Gap=     0.290 Goal=   None    Shift=    0.000
 RMSDP=1.58D-05 MaxDP=4.61D-04 DE=-5.44D-05 OVMax= 2.17D-03

 Cycle   7  Pass 0  IDiag  1:
 E= -323.505586365463     Delta-E=       -0.000019842205 Rises=F Damp=F
 DIIS: error= 1.08D-04 at cycle   7 NSaved=   7.
 NSaved= 7 IEnMin= 7 EnMin= -323.505586365463     IErMin= 7 ErrMin= 1.08D-04
 ErrMax= 1.08D-04  0.00D+00 EMaxC= 1.00D-01 BMatC= 2.09D-06 BMatP= 2.01D-05
 IDIUse=3 WtCom= 9.99D-01 WtEn= 1.08D-03
 Coeff-Com:  0.126D-02-0.230D-02-0.106D-01-0.372D-01-0.473D-01 0.175D+00
 Coeff-Com:  0.922D+00
 Coeff-En:   0.000D+00 0.000D+00 0.000D+00 0.000D+00 0.000D+00 0.000D+00
 Coeff-En:   0.100D+01
 Coeff:      0.126D-02-0.230D-02-0.106D-01-0.372D-01-0.472D-01 0.174D+00
 Coeff:      0.922D+00
 Gap=     0.290 Goal=   None    Shift=    0.000
 RMSDP=1.01D-05 MaxDP=3.39D-04 DE=-1.98D-05 OVMax= 1.01D-03

 Cycle   8  Pass 0  IDiag  1:
 E= -323.505589490551     Delta-E=       -0.000003125088 Rises=F Damp=F
 DIIS: error= 3.30D-05 at cycle   8 NSaved=   8.
 NSaved= 8 IEnMin= 8 EnMin= -323.505589490551     IErMin= 8 ErrMin= 3.30D-05
 ErrMax= 3.30D-05  0.00D+00 EMaxC= 1.00D-01 BMatC= 2.79D-07 BMatP= 2.09D-06
 IDIUse=1 WtCom= 1.00D+00 WtEn= 0.00D+00
 Coeff-Com:  0.530D-03-0.344D-03-0.406D-02-0.190D-01-0.505D-01 0.206D-01
 Coeff-Com:  0.367D+00 0.685D+00
 Coeff:      0.530D-03-0.344D-03-0.406D-02-0.190D-01-0.505D-01 0.206D-01
 Coeff:      0.367D+00 0.685D+00
 Gap=     0.290 Goal=   None    Shift=    0.000
 RMSDP=2.67D-06 MaxDP=1.01D-04 DE=-3.13D-06 OVMax= 2.73D-04

 Initial convergence to 1.0D-05 achieved.  Increase integral accuracy.
 Cycle   9  Pass 1  IDiag  1:
 E= -323.505479120545     Delta-E=        0.000110370006 Rises=F Damp=F
 DIIS: error= 2.65D-04 at cycle   1 NSaved=   1.
 NSaved= 1 IEnMin= 1 EnMin= -323.505479120545     IErMin= 1 ErrMin= 2.65D-04
 ErrMax= 2.65D-04  0.00D+00 EMaxC= 1.00D-01 BMatC= 1.97D-05 BMatP= 1.97D-05
 IDIUse=3 WtCom= 9.97D-01 WtEn= 2.65D-03
 Coeff-Com:  0.100D+01
 Coeff-En:   0.100D+01
 Coeff:      0.100D+01
 Gap=     0.290 Goal=   None    Shift=    0.000
 RMSDP=2.67D-06 MaxDP=1.01D-04 DE= 1.10D-04 OVMax= 3.39D-04

 Cycle  10  Pass 1  IDiag  1:
 E= -323.505487340625     Delta-E=       -0.000008220080 Rises=F Damp=F
 DIIS: error= 2.25D-05 at cycle   2 NSaved=   2.
 NSaved= 2 IEnMin= 2 EnMin= -323.505487340625     IErMin= 2 ErrMin= 2.25D-05
 ErrMax= 2.25D-05  0.00D+00 EMaxC= 1.00D-01 BMatC= 1.83D-07 BMatP= 1.97D-05
 IDIUse=1 WtCom= 1.00D+00 WtEn= 0.00D+00
 Coeff-Com: -0.222D-01 0.102D+01
 Coeff:     -0.222D-01 0.102D+01
 Gap=     0.290 Goal=   None    Shift=    0.000
 RMSDP=3.10D-06 MaxDP=1.12D-04 DE=-8.22D-06 OVMax= 3.58D-04

 Cycle  11  Pass 1  IDiag  1:
 E= -323.505487261893     Delta-E=        0.000000078732 Rises=F Damp=F
 DIIS: error= 3.90D-05 at cycle   3 NSaved=   3.
 NSaved= 3 IEnMin= 2 EnMin= -323.505487340625     IErMin= 2 ErrMin= 2.25D-05
 ErrMax= 3.90D-05  0.00D+00 EMaxC= 1.00D-01 BMatC= 3.08D-07 BMatP= 1.83D-07
 IDIUse=1 WtCom= 1.00D+00 WtEn= 0.00D+00
 Coeff-Com: -0.218D-01 0.596D+00 0.426D+00
 Coeff:     -0.218D-01 0.596D+00 0.426D+00
 Gap=     0.290 Goal=   None    Shift=    0.000
 RMSDP=1.37D-06 MaxDP=6.71D-05 DE= 7.87D-08 OVMax= 1.97D-04

 Cycle  12  Pass 1  IDiag  1:
 E= -323.505487545570     Delta-E=       -0.000000283677 Rises=F Damp=F
 DIIS: error= 3.25D-06 at cycle   4 NSaved=   4.
 NSaved= 4 IEnMin= 4 EnMin= -323.505487545570     IErMin= 4 ErrMin= 3.25D-06
 ErrMax= 3.25D-06  0.00D+00 EMaxC= 1.00D-01 BMatC= 2.92D-09 BMatP= 1.83D-07
 IDIUse=1 WtCom= 1.00D+00 WtEn= 0.00D+00
 Coeff-Com: -0.425D-02 0.573D-01 0.738D-01 0.873D+00
 Coeff:     -0.425D-02 0.573D-01 0.738D-01 0.873D+00
 Gap=     0.290 Goal=   None    Shift=    0.000
 RMSDP=3.11D-07 MaxDP=1.17D-05 DE=-2.84D-07 OVMax= 3.45D-05

 Cycle  13  Pass 1  IDiag  1:
 E= -323.505487547894     Delta-E=       -0.000000002324 Rises=F Damp=F
 DIIS: error= 2.26D-06 at cycle   5 NSaved=   5.
 NSaved= 5 IEnMin= 5 EnMin= -323.505487547894     IErMin= 5 ErrMin= 2.26D-06
 ErrMax= 2.26D-06  0.00D+00 EMaxC= 1.00D-01 BMatC= 1.46D-09 BMatP= 2.92D-09
 IDIUse=1 WtCom= 1.00D+00 WtEn= 0.00D+00
 Coeff-Com:  0.479D-03-0.412D-01-0.211D-01 0.422D+00 0.640D+00
 Coeff:      0.479D-03-0.412D-01-0.211D-01 0.422D+00 0.640D+00
 Gap=     0.290 Goal=   None    Shift=    0.000
 RMSDP=1.26D-07 MaxDP=5.67D-06 DE=-2.32D-09 OVMax= 1.51D-05

 Cycle  14  Pass 1  IDiag  1:
 E= -323.505487549340     Delta-E=       -0.000000001446 Rises=F Damp=F
 DIIS: error= 8.48D-07 at cycle   6 NSaved=   6.
 NSaved= 6 IEnMin= 6 EnMin= -323.505487549340     IErMin= 6 ErrMin= 8.48D-07
 ErrMax= 8.48D-07  0.00D+00 EMaxC= 1.00D-01 BMatC= 9.89D-11 BMatP= 1.46D-09
 IDIUse=1 WtCom= 1.00D+00 WtEn= 0.00D+00
 Coeff-Com:  0.446D-03-0.207D-01-0.144D-01 0.126D+00 0.279D+00 0.629D+00
 Coeff:      0.446D-03-0.207D-01-0.144D-01 0.126D+00 0.279D+00 0.629D+00
 Gap=     0.290 Goal=   None    Shift=    0.000
 RMSDP=5.00D-08 MaxDP=1.91D-06 DE=-1.45D-09 OVMax= 4.68D-06

 Cycle  15  Pass 1  IDiag  1:
 E= -323.505487549396     Delta-E=       -0.000000000057 Rises=F Damp=F
 DIIS: error= 3.50D-07 at cycle   7 NSaved=   7.
 NSaved= 7 IEnMin= 7 EnMin= -323.505487549396     IErMin= 7 ErrMin= 3.50D-07
 ErrMax= 3.50D-07  0.00D+00 EMaxC= 1.00D-01 BMatC= 2.41D-11 BMatP= 9.89D-11
 IDIUse=1 WtCom= 1.00D+00 WtEn= 0.00D+00
 Coeff-Com:  0.186D-03-0.368D-02-0.509D-02-0.156D-01 0.285D-01 0.344D+00
 Coeff-Com:  0.652D+00
 Coeff:      0.186D-03-0.368D-02-0.509D-02-0.156D-01 0.285D-01 0.344D+00
 Coeff:      0.652D+00
 Gap=     0.290 Goal=   None    Shift=    0.000
 RMSDP=1.37D-08 MaxDP=9.00D-07 DE=-5.65D-11 OVMax= 2.24D-06

 Cycle  16  Pass 1  IDiag  1:
 E= -323.505487549438     Delta-E=       -0.000000000041 Rises=F Damp=F
 DIIS: error= 8.92D-08 at cycle   8 NSaved=   8.
 NSaved= 8 IEnMin= 8 EnMin= -323.505487549438     IErMin= 8 ErrMin= 8.92D-08
 ErrMax= 8.92D-08  0.00D+00 EMaxC= 1.00D-01 BMatC= 1.54D-12 BMatP= 2.41D-11
 IDIUse=1 WtCom= 1.00D+00 WtEn= 0.00D+00
 Coeff-Com:  0.235D-04 0.672D-03-0.106D-02-0.174D-01-0.203D-01 0.613D-01
 Coeff-Com:  0.238D+00 0.739D+00
 Coeff:      0.235D-04 0.672D-03-0.106D-02-0.174D-01-0.203D-01 0.613D-01
 Coeff:      0.238D+00 0.739D+00
 Gap=     0.290 Goal=   None    Shift=    0.000
 RMSDP=5.59D-09 MaxDP=2.50D-07 DE=-4.13D-11 OVMax= 5.18D-07

 SCF Done:  E(RM062X) =  -323.505487549     A.U. after   16 cycles
            NFock= 16  Conv=0.56D-08     -V/T= 2.0046
 KE= 3.220170875880D+02 PE=-1.300993196575D+03 EE= 3.821901825964D+02
 Leave Link  502 at Fri Aug 27 21:29:18 2021, MaxMem= 17179869184 cpu:       309.8
 (Enter /public3/home/sc51754/softwares/g09e01/l601.exe)
 Copying SCF densities to generalized density rwf, IOpCl= 0 IROHF=0.

 **********************************************************************

            Population analysis using the SCF density.

 **********************************************************************

 Orbital symmetries:
       Occupied  (A') (A') (A") (A') (A') (A") (A') (A') (A') (A')
                 (A") (A") (A') (A') (A") (A') (A") (A') (A') (A')
                 (A") (A') (A") (A") (A')
       Virtual   (A') (A') (A") (A") (A') (A") (A') (A') (A') (A")
                 (A') (A') (A') (A") (A") (A") (A') (A') (A") (A')
                 (A") (A') (A') (A") (A') (A') (A") (A') (A") (A')
                 (A') (A') (A") (A') (A') (A') (A") (A") (A") (A')
                 (A") (A') (A") (A') (A") (A') (A') (A") (A") (A')
                 (A') (A") (A') (A") (A') (A') (A') (A") (A') (A')
                 (A') (A") (A') (A") (A') (A") (A') (A") (A') (A")
                 (A') (A") (A') (A") (A") (A') (A') (A") (A") (A')
                 (A') (A") (A') (A") (A') (A') (A') (A') (A') (A")
                 (A") (A") (A') (A') (A") (A") (A') (A") (A') (A')
                 (A") (A') (A") (A") (A") (A') (A') (A') (A") (A')
                 (A') (A") (A') (A") (A') (A") (A') (A') (A") (A")
                 (A") (A') (A') (A") (A') (A") (A') (A") (A') (A')
                 (A") (A') (A") (A") (A') (A') (A') (A") (A') (A')
                 (A") (A") (A") (A') (A") (A') (A') (A') (A') (A")
                 (A") (A') (A") (A') (A') (A") (A") (A') (A') (A")
                 (A') (A') (A") (A") (A") (A") (A') (A') (A') (A")
                 (A") (A') (A') (A") (A') (A') (A") (A") (A") (A')
                 (A') (A') (A') (A") (A') (A") (A") (A') (A") (A')
                 (A') (A") (A") (A') (A") (A') (A') (A') (A") (A")
                 (A') (A') (A') (A") (A") (A") (A") (A') (A') (A')
                 (A') (A") (A') (A") (A") (A") (A') (A') (A') (A")
                 (A") (A') (A") (A") (A') (A") (A") (A') (A') (A")
                 (A') (A') (A") (A') (A') (A") (A') (A") (A") (A')
                 (A') (A") (A') (A') (A") (A') (A') (A") (A') (A')
                 (A") (A') (A") (A') (A')
 The electronic state is 1-A'.
 Alpha  occ. eigenvalues --  -19.57334 -14.82591 -10.61077 -10.61076 -10.60978
 Alpha  occ. eigenvalues --  -10.54627 -10.54627  -1.12509  -1.10745  -0.89113
 Alpha  occ. eigenvalues --   -0.89052  -0.73821  -0.71470  -0.67206  -0.58263
 Alpha  occ. eigenvalues --   -0.55850  -0.52874  -0.51709  -0.51687  -0.46018
 Alpha  occ. eigenvalues --   -0.44934  -0.44010  -0.34933  -0.30570  -0.28279
 Alpha virt. eigenvalues --    0.00756   0.00805   0.00865   0.04527   0.06449
 Alpha virt. eigenvalues --    0.08629   0.09259   0.15057   0.15739   0.17113
 Alpha virt. eigenvalues --    0.18517   0.18601   0.19190   0.21697   0.21829
 Alpha virt. eigenvalues --    0.24878   0.25363   0.25913   0.30197   0.30223
 Alpha virt. eigenvalues --    0.30250   0.31757   0.32570   0.33369   0.34816
 Alpha virt. eigenvalues --    0.35930   0.35942   0.38490   0.39298   0.42851
 Alpha virt. eigenvalues --    0.44818   0.47816   0.48007   0.48508   0.51990
 Alpha virt. eigenvalues --    0.52846   0.53447   0.57305   0.58533   0.60049
 Alpha virt. eigenvalues --    0.63489   0.63695   0.68049   0.68093   0.72739
 Alpha virt. eigenvalues --    0.73285   0.76196   0.78803   0.82232   0.84364
 Alpha virt. eigenvalues --    0.84498   0.88623   0.93700   0.93799   0.94457
 Alpha virt. eigenvalues --    0.98878   1.01725   1.02276   1.02372   1.10109
 Alpha virt. eigenvalues --    1.13583   1.13798   1.14455   1.16055   1.17900
 Alpha virt. eigenvalues --    1.19465   1.21333   1.22957   1.23704   1.25716
 Alpha virt. eigenvalues --    1.27772   1.29735   1.30455   1.33993   1.37982
 Alpha virt. eigenvalues --    1.38119   1.39477   1.44797   1.46517   1.48142
 Alpha virt. eigenvalues --    1.48884   1.49068   1.49933   1.50357   1.57082
 Alpha virt. eigenvalues --    1.58837   1.61052   1.66538   1.66980   1.67656
 Alpha virt. eigenvalues --    1.68984   1.69817   1.77367   1.78842   1.79165
 Alpha virt. eigenvalues --    1.80924   1.84853   1.85596   1.86261   1.92323
 Alpha virt. eigenvalues --    1.94448   1.97212   1.97927   2.03927   2.05285
 Alpha virt. eigenvalues --    2.08452   2.12712   2.17096   2.19037   2.21278
 Alpha virt. eigenvalues --    2.24072   2.24969   2.27557   2.30890   2.43444
 Alpha virt. eigenvalues --    2.44794   2.54019   2.57194   2.66662   2.82895
 Alpha virt. eigenvalues --    2.87057   2.92436   2.96920   2.97893   3.14944
 Alpha virt. eigenvalues --    3.17842   3.18656   3.22166   3.24708   3.25626
 Alpha virt. eigenvalues --    3.27170   3.31403   3.31623   3.34428   3.35743
 Alpha virt. eigenvalues --    3.45377   3.45676   3.49751   3.52896   3.54726
 Alpha virt. eigenvalues --    3.56653   3.60554   3.63446   3.65147   3.65654
 Alpha virt. eigenvalues --    3.66793   3.70579   3.75512   3.81226   3.89252
 Alpha virt. eigenvalues --    3.91082   3.91826   3.94802   3.94824   3.96203
 Alpha virt. eigenvalues --    3.99065   3.99161   4.00729   4.05615   4.07085
 Alpha virt. eigenvalues --    4.07398   4.08105   4.10210   4.11176   4.14706
 Alpha virt. eigenvalues --    4.16374   4.16447   4.17492   4.18795   4.19755
 Alpha virt. eigenvalues --    4.20936   4.23620   4.24986   4.26420   4.27581
 Alpha virt. eigenvalues --    4.28184   4.29335   4.30908   4.33721   4.35089
 Alpha virt. eigenvalues --    4.36057   4.37403   4.41892   4.42236   4.42857
 Alpha virt. eigenvalues --    4.44080   4.47072   4.48156   4.50375   4.51033
 Alpha virt. eigenvalues --    4.54686   4.55730   4.58246   4.61446   4.62367
 Alpha virt. eigenvalues --    4.65679   4.70533   4.73019   4.73072   4.73894
 Alpha virt. eigenvalues --    4.80772   4.86538   4.89122   4.90587   4.90709
 Alpha virt. eigenvalues --    4.94005   5.02385   5.02807   5.04185   5.13686
 Alpha virt. eigenvalues --    5.14224   5.16884   5.20730   5.20885   5.22751
 Alpha virt. eigenvalues --    5.28950   5.29112   5.34619   5.36873   5.37182
 Alpha virt. eigenvalues --    5.40500   5.43310   5.50130   5.53158   5.54137
 Alpha virt. eigenvalues --    5.54521   5.61735   5.63086   5.67179   5.70600
 Alpha virt. eigenvalues --    5.71199   5.81412   5.85100   5.88348   5.89682
 Alpha virt. eigenvalues --    5.99609   6.05728   6.10741   6.18251   6.21605
 Alpha virt. eigenvalues --    6.26942   6.41831   6.42200   6.52821   6.82093
 Alpha virt. eigenvalues --    6.83863   6.91326   7.09024   9.37735  12.30107
 Alpha virt. eigenvalues --   12.47111  15.20804  16.92762  18.34677  22.55767
          Condensed to atoms (all electrons):
               1          2          3          4          5          6
     1  C    4.607488   0.576353  -0.044304  -0.024635  -0.084512   0.361434
     2  C    0.576353   5.002555   0.401066  -0.060624  -0.024635  -0.058612
     3  C   -0.044304   0.401066   4.320746   0.401066  -0.044304  -0.012735
     4  C   -0.024635  -0.060624   0.401066   5.002555   0.576353  -0.058612
     5  C   -0.084512  -0.024635  -0.044304   0.576353   4.607488   0.361434
     6  N    0.361434  -0.058612  -0.012735  -0.058612   0.361434   6.414693
     7  H    0.418289  -0.025487   0.003924  -0.005709   0.005377  -0.040900
     8  H   -0.037668   0.442861  -0.030812   0.010081  -0.000782   0.004517
     9  H   -0.000782   0.010081  -0.030812   0.442861  -0.037668   0.004517
    10  H    0.005377  -0.005709   0.003924  -0.025487   0.418289  -0.040900
    11  O    0.006741  -0.077813   0.567963  -0.077813   0.006741   0.000899
    12  H   -0.029048   0.006540  -0.001250   0.006540  -0.029048   0.425060
               7          8          9         10         11         12
     1  C    0.418289  -0.037668  -0.000782   0.005377   0.006741  -0.029048
     2  C   -0.025487   0.442861   0.010081  -0.005709  -0.077813   0.006540
     3  C    0.003924  -0.030812  -0.030812   0.003924   0.567963  -0.001250
     4  C   -0.005709   0.010081   0.442861  -0.025487  -0.077813   0.006540
     5  C    0.005377  -0.000782  -0.037668   0.418289   0.006741  -0.029048
     6  N   -0.040900   0.004517   0.004517  -0.040900   0.000899   0.425060
     7  H    0.617034  -0.006490   0.000200  -0.000538  -0.000617  -0.008323
     8  H   -0.006490   0.582817   0.000102   0.000200   0.003868  -0.000353
     9  H    0.000200   0.000102   0.582817  -0.006490   0.003868  -0.000353
    10  H   -0.000538   0.000200  -0.006490   0.617034  -0.000617  -0.008323
    11  O   -0.000617   0.003868   0.003868  -0.000617   8.076619   0.000086
    12  H   -0.008323  -0.000353  -0.000353  -0.008323   0.000086   0.500459
 Mulliken charges:
               1
     1  C    0.245267
     2  C   -0.186575
     3  C    0.465530
     4  C   -0.186575
     5  C    0.245267
     6  N   -0.360795
     7  H    0.043237
     8  H    0.031659
     9  H    0.031659
    10  H    0.043237
    11  O   -0.509926
    12  H    0.138015
 Sum of Mulliken charges =  -0.00000
 Mulliken charges with hydrogens summed into heavy atoms:
               1
     1  C    0.288504
     2  C   -0.154916
     3  C    0.465530
     4  C   -0.154916
     5  C    0.288504
     6  N   -0.222780
    11  O   -0.509926
 Electronic spatial extent (au):  <R**2>=            641.5077
 Charge=             -0.0000 electrons
 Dipole moment (field-independent basis, Debye):
    X=              0.0013    Y=              7.0680    Z=              0.0000  Tot=              7.0680
 Quadrupole moment (field-independent basis, Debye-Ang):
   XX=            -43.5830   YY=            -42.6761   ZZ=            -34.4368
   XY=             -0.0055   XZ=             -0.0000   YZ=              0.0000
 Traceless Quadrupole moment (field-independent basis, Debye-Ang):
   XX=             -3.3510   YY=             -2.4441   ZZ=              5.7952
   XY=             -0.0055   XZ=             -0.0000   YZ=              0.0000
 Octapole moment (field-independent basis, Debye-Ang**2):
  XXX=             -0.0038  YYY=             58.5644  ZZZ=             -0.0000  XYY=              0.0022
  XXY=             -2.1676  XXZ=              0.0000  XZZ=              0.0093  YZZ=              4.1032
  YYZ=              0.0000  XYZ=              0.0000
 Hexadecapole moment (field-independent basis, Debye-Ang**3):
 XXXX=            -48.1218 YYYY=           -496.4088 ZZZZ=           -263.3166 XXXY=             -0.0323
 XXXZ=             -0.0000 YYYX=             -0.0751 YYYZ=              0.0000 ZZZX=             -0.0000
 ZZZY=              0.0000 XXYY=            -93.3946 XXZZ=            -65.2441 YYZZ=           -116.3134
 XXYZ=             -0.0000 YYXZ=              0.0000 ZZXY=             -0.0067
 N-N= 2.732804388411D+02 E-N=-1.300993208073D+03  KE= 3.220170875880D+02
 Symmetry A'   KE= 2.362437074565D+02
 Symmetry A"   KE= 8.577338013158D+01
 No NMR shielding tensors so no spin-rotation constants.
 Leave Link  601 at Fri Aug 27 21:29:19 2021, MaxMem= 17179869184 cpu:        61.7
 (Enter /public3/home/sc51754/softwares/g09e01/l701.exe)
 Compute integral first derivatives.
 ... and contract with generalized density number  0.
 Leave Link  701 at Fri Aug 27 21:29:21 2021, MaxMem= 17179869184 cpu:       101.1
 (Enter /public3/home/sc51754/softwares/g09e01/l702.exe)
 L702 exits ... SP integral derivatives will be done elsewhere.
 Leave Link  702 at Fri Aug 27 21:29:21 2021, MaxMem= 17179869184 cpu:         0.3
 (Enter /public3/home/sc51754/softwares/g09e01/l703.exe)
 Compute integral first derivatives, UseDBF=F ICtDFT=           0.
 Integral derivatives from FoFJK, PRISM(SPDF).
 Calling FoFJK, ICntrl=      2127 FMM=F ISym2X=1 I1Cent= 0 IOpClX= 0 NMat=1 NMatS=1 NMatT=0.
 FoFJK:  IHMeth= 1 ICntrl=    2127 DoSepK=F KAlg= 0 I1Cent=   0 FoldK=F
 IRaf=         0 NMat=   1 IRICut=       1 DoRegI=T DoRafI=F ISym2E= 1.
 FoFCou: FMM=F IPFlag=           0 FMFlag=      100000 FMFlg1=         800
         NFxFlg=           0 DoJE=F BraDBF=F KetDBF=F FulRan=T
         wScrn=  0.000000 ICntrl=    2127 IOpCl=  0 I1Cent=           0 NGrid=           0
         NMat0=    1 NMatS0=      1 NMatT0=    0 NMatD0=    1 NMtDS0=    0 NMtDT0=    0
 Petite list used in FoFCou.
 Leave Link  703 at Fri Aug 27 21:29:23 2021, MaxMem= 17179869184 cpu:       104.4
 (Enter /public3/home/sc51754/softwares/g09e01/l716.exe)
 Dipole        = 5.19278553D-04 2.78077764D+00 8.86536813D-16
 ***** Axes restored to original set *****
 -------------------------------------------------------------------
 Center     Atomic                   Forces (Hartrees/Bohr)
 Number     Number              X              Y              Z
 -------------------------------------------------------------------
      1        6          -0.000008871    0.005460131   -0.006101558
      2        6           0.000000114   -0.005019745   -0.000327830
      3        6          -0.000013069    0.010974887    0.000000000
      4        6           0.000000114   -0.005019745    0.000327830
      5        6          -0.000008871    0.005460131    0.006101558
      6        7           0.000002412    0.003600118    0.000000000
      7        1           0.000016559    0.002128779   -0.002610509
      8        1           0.000007088   -0.001569150   -0.002546202
      9        1           0.000007088   -0.001569150    0.002546202
     10        1           0.000016559    0.002128779    0.002610509
     11        8          -0.000003752   -0.020274061    0.000000000
     12        1          -0.000015369    0.003699026   -0.000000000
 -------------------------------------------------------------------
 Cartesian Forces:  Max     0.020274061 RMS     0.004664907
 Leave Link  716 at Fri Aug 27 21:29:23 2021, MaxMem= 17179869184 cpu:         0.4
 (Enter /public3/home/sc51754/softwares/g09e01/l103.exe)

 GradGradGradGradGradGradGradGradGradGradGradGradGradGradGradGradGradGrad
 Berny optimization.
 FormGI is forming the generalized inverse of G from B-inverse, IUseBI=4.
 Internal  Forces:  Max     0.020274061 RMS     0.004168992
 Search for a local minimum.
 Step number   1 out of a maximum of   64
 All quantities printed in internal units (Hartrees-Bohrs-Radians)
 RMS Force = .41690D-02 SwitMx=.10000D-02 MixMth= 1
 Mixed Optimization -- RFO/linear search
 Second derivative matrix not updated -- first step.
 ITU=  0
     Eigenvalues ---    0.01179   0.01465   0.01838   0.01956   0.02032
     Eigenvalues ---    0.02219   0.02234   0.02399   0.02441   0.16000
     Eigenvalues ---    0.16000   0.16000   0.16000   0.16000   0.22000
     Eigenvalues ---    0.22000   0.23391   0.25000   0.34645   0.35229
     Eigenvalues ---    0.35431   0.35431   0.35528   0.35528   0.46397
     Eigenvalues ---    0.47941   0.48075   0.51510   0.53792   0.89549
 RFO step:  Lambda=-1.59660760D-03 EMin= 1.17876314D-02
 Linear search not attempted -- first point.
 Iteration  1 RMS(Cart)=  0.01190512 RMS(Int)=  0.00001515
 Iteration  2 RMS(Cart)=  0.00001505 RMS(Int)=  0.00000098
 Iteration  3 RMS(Cart)=  0.00000000 RMS(Int)=  0.00000098
 ITry= 1 IFail=0 DXMaxC= 4.69D-02 DCOld= 1.00D+10 DXMaxT= 3.00D-01 DXLimC= 3.00D+00 Rises=F
 ClnCor:  largest displacement from symmetrization is 2.14D-11 for atom    10.
 Variable       Old X    -DE/DX   Delta X   Delta X   Delta X     New X
                                 (Linear)    (Quad)   (Total)
    R1        2.56220  -0.01120   0.00000  -0.02077  -0.02077   2.54143
    R2        2.59705  -0.00816   0.00000  -0.01677  -0.01677   2.58029
    R3        2.04981  -0.00336   0.00000  -0.00944  -0.00944   2.04037
    R4        2.77562  -0.00612   0.00000  -0.01624  -0.01625   2.75937
    R5        2.04825  -0.00299   0.00000  -0.00837  -0.00837   2.03988
    R6        2.77562  -0.00612   0.00000  -0.01624  -0.01625   2.75937
    R7        2.33142  -0.02027   0.00000  -0.02260  -0.02260   2.30882
    R8        2.56220  -0.01120   0.00000  -0.02077  -0.02077   2.54143
    R9        2.04825  -0.00299   0.00000  -0.00837  -0.00837   2.03988
   R10        2.59705  -0.00816   0.00000  -0.01677  -0.01677   2.58029
   R11        2.04981  -0.00336   0.00000  -0.00944  -0.00944   2.04037
   R12        1.90386  -0.00370   0.00000  -0.00795  -0.00795   1.89592
    A1        2.11471   0.00110   0.00000   0.00386   0.00386   2.11857
    A2        2.15142  -0.00082   0.00000  -0.00359  -0.00359   2.14782
    A3        2.01706  -0.00028   0.00000  -0.00027  -0.00027   2.01679
    A4        2.12519  -0.00170   0.00000  -0.00634  -0.00634   2.11885
    A5        2.09805   0.00069   0.00000   0.00221   0.00221   2.10026
    A6        2.05994   0.00100   0.00000   0.00413   0.00413   2.06407
    A7        1.98154   0.00107   0.00000   0.00667   0.00667   1.98821
    A8        2.15082  -0.00053   0.00000  -0.00334  -0.00333   2.14749
    A9        2.15082  -0.00053   0.00000  -0.00334  -0.00333   2.14749
   A10        2.12519  -0.00170   0.00000  -0.00634  -0.00634   2.11885
   A11        2.05994   0.00100   0.00000   0.00413   0.00413   2.06407
   A12        2.09805   0.00069   0.00000   0.00221   0.00221   2.10026
   A13        2.11471   0.00110   0.00000   0.00386   0.00386   2.11857
   A14        2.15142  -0.00082   0.00000  -0.00359  -0.00359   2.14782
   A15        2.01706  -0.00028   0.00000  -0.00027  -0.00027   2.01679
   A16        2.10503   0.00013   0.00000  -0.00172  -0.00171   2.10332
   A17        2.08908  -0.00007   0.00000   0.00086   0.00086   2.08993
   A18        2.08908  -0.00007   0.00000   0.00086   0.00086   2.08993
    D1       -0.00015   0.00000   0.00000   0.00009   0.00009  -0.00006
    D2        3.14133   0.00000   0.00000   0.00020   0.00020   3.14154
    D3       -3.14143  -0.00001   0.00000  -0.00018  -0.00018   3.14158
    D4        0.00006  -0.00000   0.00000  -0.00006  -0.00006  -0.00000
    D5       -0.00035   0.00001   0.00000   0.00032   0.00032  -0.00003
    D6        3.14089   0.00000   0.00000   0.00013   0.00013   3.14102
    D7        3.14095   0.00001   0.00000   0.00057   0.00057   3.14151
    D8       -0.00100   0.00001   0.00000   0.00037   0.00037  -0.00063
    D9        0.00059  -0.00001   0.00000  -0.00045  -0.00045   0.00014
   D10       -3.14124   0.00000   0.00000   0.00016   0.00016  -3.14108
   D11       -3.14090  -0.00001   0.00000  -0.00056  -0.00056  -3.14146
   D12        0.00046  -0.00000   0.00000   0.00004   0.00004   0.00050
   D13       -0.00059   0.00001   0.00000   0.00045   0.00045  -0.00014
   D14        3.14090   0.00001   0.00000   0.00056   0.00056   3.14146
   D15        3.14124  -0.00000   0.00000  -0.00016  -0.00016   3.14108
   D16       -0.00046   0.00000   0.00000  -0.00004  -0.00004  -0.00050
   D17        0.00015  -0.00000   0.00000  -0.00009  -0.00009   0.00006
   D18        3.14143   0.00001   0.00000   0.00018   0.00018  -3.14158
   D19       -3.14133  -0.00000   0.00000  -0.00020  -0.00020  -3.14154
   D20       -0.00006   0.00000   0.00000   0.00006   0.00006   0.00000
   D21        0.00035  -0.00001   0.00000  -0.00032  -0.00032   0.00003
   D22       -3.14089  -0.00000   0.00000  -0.00013  -0.00013  -3.14102
   D23       -3.14095  -0.00001   0.00000  -0.00057  -0.00057  -3.14151
   D24        0.00100  -0.00001   0.00000  -0.00037  -0.00037   0.00063
         Item               Value     Threshold  Converged?
 Maximum Force            0.020274     0.000450     NO 
 RMS     Force            0.004169     0.000300     NO 
 Maximum Displacement     0.046922     0.001800     NO 
 RMS     Displacement     0.011908     0.001200     NO 
 Predicted change in Energy=-8.007863D-04
 Lowest energy point so far.  Saving SCF results.
 GradGradGradGradGradGradGradGradGradGradGradGradGradGradGradGradGradGrad

 Leave Link  103 at Fri Aug 27 21:29:24 2021, MaxMem= 17179869184 cpu:        43.1
 (Enter /public3/home/sc51754/softwares/g09e01/l202.exe)
                          Input orientation:                          
 ---------------------------------------------------------------------
 Center     Atomic      Atomic             Coordinates (Angstroms)
 Number     Number       Type             X           Y           Z
 ---------------------------------------------------------------------
      1          6           0       -0.000229   -1.041850    1.185530
      2          6           0       -0.000223    0.302467    1.224039
      3          6           0       -0.000121    1.098645    0.000000
      4          6           0       -0.000223    0.302467   -1.224039
      5          6           0       -0.000229   -1.041850   -1.185530
      6          7           0       -0.000216   -1.719283   -0.000000
      7          1           0       -0.000293   -1.656542    2.073193
      8          1           0       -0.000285    0.820773    2.170925
      9          1           0       -0.000285    0.820773   -2.170925
     10          1           0       -0.000293   -1.656542   -2.073193
     11          8           0        0.000410    2.320418    0.000000
     12          1           0        0.000282   -2.722558   -0.000000
 ---------------------------------------------------------------------
                    Distance matrix (angstroms):
                    1          2          3          4          5
     1  C    0.000000
     2  C    1.344868   0.000000
     3  C    2.446876   1.460195   0.000000
     4  C    2.759205   2.448078   1.460195   0.000000
     5  C    2.371060   2.759205   2.446876   1.344868   0.000000
     6  N    1.365429   2.363418   2.817928   2.363418   1.365429
     7  H    1.079719   2.135130   3.448070   3.835291   3.316191
     8  H    2.107218   1.079460   2.188636   3.434301   3.838640
     9  H    3.838640   3.434301   2.188636   1.079460   2.107218
    10  H    3.316191   3.835291   3.448070   2.135130   1.079719
    11  O    3.565154   2.360169   1.221773   2.360169   3.565154
    12  H    2.056760   3.263288   3.821204   3.263288   2.056760
                    6          7          8          9         10
     6  N    0.000000
     7  H    2.074142   0.000000
     8  H    3.341377   2.479243   0.000000
     9  H    3.341377   4.914227   4.341850   0.000000
    10  H    2.074142   4.146386   4.914227   2.479243   0.000000
    11  O    4.039701   4.484902   2.638532   2.638532   4.484902
    12  H    1.003276   2.331206   4.155492   4.155492   2.331206
                   11         12
    11  O    0.000000
    12  H    5.042976   0.000000
 Stoichiometry    C5H5NO
 Framework group  CS[SG(CHNO),X(C4H4)]
 Deg. of freedom    17
 Full point group                 CS      NOp   2
 RotChk:  IX=3 Diff= 6.65D-06
 Largest Abelian subgroup         CS      NOp   2
 Largest concise Abelian subgroup CS      NOp   2
                         Standard orientation:                         
 ---------------------------------------------------------------------
 Center     Atomic      Atomic             Coordinates (Angstroms)
 Number     Number       Type             X           Y           Z
 ---------------------------------------------------------------------
      1          6           0        0.000119    1.038921    1.185530
      2          6           0        0.000119   -0.305396    1.224039
      3          6           0        0.000021   -1.101574   -0.000000
      4          6           0        0.000119   -0.305396   -1.224039
      5          6           0        0.000119    1.038921   -1.185530
      6          7           0        0.000103    1.716354    0.000000
      7          1           0        0.000180    1.653613    2.073193
      8          1           0        0.000184   -0.823702    2.170925
      9          1           0        0.000184   -0.823702   -2.170925
     10          1           0        0.000180    1.653613   -2.073193
     11          8           0       -0.000505   -2.323347   -0.000000
     12          1           0       -0.000400    2.719629    0.000000
 ---------------------------------------------------------------------
 Rotational constants (GHZ):      5.7525414      2.7401945      1.8560665
 Leave Link  202 at Fri Aug 27 21:29:25 2021, MaxMem= 17179869184 cpu:         6.3
 (Enter /public3/home/sc51754/softwares/g09e01/l301.exe)
 Basis read from rwf:  (5D, 7F)
 No pseudopotential information found on rwf file.
 There are   183 symmetry adapted cartesian basis functions of A'  symmetry.
 There are   137 symmetry adapted cartesian basis functions of A"  symmetry.
 There are   158 symmetry adapted basis functions of A'  symmetry.
 There are   122 symmetry adapted basis functions of A"  symmetry.
   280 basis functions,   475 primitive gaussians,   320 cartesian basis functions
    25 alpha electrons       25 beta electrons
       nuclear repulsion energy       275.2188954009 Hartrees.
 IExCor= 4336 DFT=T Ex+Corr=M062X ExCW=0 ScaHFX=  0.540000
 ScaDFX=  1.000000  1.000000  1.000000  1.000000 ScalE2=  1.000000  1.000000
 IRadAn=      0 IRanWt=     -1 IRanGd=            0 ICorTp=0 IEmpDi=  4
 NAtoms=   12 NActive=   12 NUniq=    8 SFac= 2.25D+00 NAtFMM=   60 NAOKFM=F Big=F
 Integral buffers will be    131072 words long.
 Raffenetti 2 integral format.
 Two-electron integral symmetry is turned on.
 No density basis found on file   724.
 Leave Link  301 at Fri Aug 27 21:29:25 2021, MaxMem= 17179869184 cpu:         1.0
 (Enter /public3/home/sc51754/softwares/g09e01/l302.exe)
 NPDir=0 NMtPBC=     1 NCelOv=     1 NCel=       1 NClECP=     1 NCelD=      1
         NCelK=      1 NCelE2=     1 NClLst=     1 CellRange=     0.0.
 One-electron integrals computed using PRISM.
 One-electron integral symmetry used in STVInt
 NBasis=   280 RedAO= T EigKep=  1.75D-04  NBF=   158   122
 NBsUse=   280 1.00D-06 EigRej= -1.00D+00 NBFU=   158   122
 Precomputing XC quadrature grid using
 IXCGrd= 4 IRadAn=           0 IRanWt=          -1 IRanGd=           0 AccXCQ= 0.00D+00.
 Generated NRdTot=       0 NPtTot=           0 NUsed=           0 NTot=          32
 NSgBfM=   320   320   320   320   320 MxSgAt=    12 MxSgA2=    12.
 Leave Link  302 at Fri Aug 27 21:29:26 2021, MaxMem= 17179869184 cpu:        43.8
 (Enter /public3/home/sc51754/softwares/g09e01/l303.exe)
 DipDrv:  MaxL=1.
 Leave Link  303 at Fri Aug 27 21:29:26 2021, MaxMem= 17179869184 cpu:        10.0
 (Enter /public3/home/sc51754/softwares/g09e01/l401.exe)
 Initial guess from the checkpoint file:  "4PY_M062X_PC2_OPT_FREQ.chk"
 B after Tr=     0.000000   -0.000000    0.000000
         Rot=    1.000000   -0.000000   -0.000000   -0.000013 Ang=  -0.00 deg.
 Guess basis will be translated and rotated to current coordinates.
 JPrj=2 DoOrth=T DoCkMO=T.
 Initial guess orbital symmetries:
       Occupied  (A') (A') (A") (A') (A') (A") (A') (A') (A') (A')
                 (A") (A") (A') (A') (A") (A') (A") (A') (A') (A')
                 (A") (A') (A") (A") (A')
       Virtual   (A') (A') (A') (A') (A') (A') (A') (A') (A') (A')
                 (A') (A') (A') (A') (A') (A') (A') (A') (A') (A')
                 (A') (A') (A') (A') (A') (A') (A') (A') (A') (A')
                 (A') (A') (A') (A') (A') (A') (A') (A') (A') (A')
                 (A') (A') (A') (A') (A') (A') (A') (A') (A') (A')
                 (A') (A') (A') (A') (A') (A') (A') (A') (A') (A')
                 (A') (A') (A') (A') (A') (A') (A') (A') (A') (A')
                 (A') (A') (A') (A') (A') (A') (A') (A') (A') (A')
                 (A') (A') (A') (A') (A') (A') (A') (A') (A') (A')
                 (A') (A') (A') (A') (A') (A') (A') (A') (A') (A')
                 (A') (A') (A') (A') (A') (A') (A') (A') (A') (A')
                 (A') (A') (A') (A') (A') (A') (A') (A') (A') (A')
                 (A') (A') (A') (A') (A') (A') (A') (A') (A') (A')
                 (A') (A') (A') (A') (A') (A') (A') (A') (A') (A')
                 (A') (A') (A") (A") (A") (A") (A") (A") (A") (A")
                 (A") (A") (A") (A") (A") (A") (A") (A") (A") (A")
                 (A") (A") (A") (A") (A") (A") (A") (A") (A") (A")
                 (A") (A") (A") (A") (A") (A") (A") (A") (A") (A")
                 (A") (A") (A") (A") (A") (A") (A") (A") (A") (A")
                 (A") (A") (A") (A") (A") (A") (A") (A") (A") (A")
                 (A") (A") (A") (A") (A") (A") (A") (A") (A") (A")
                 (A") (A") (A") (A") (A") (A") (A") (A") (A") (A")
                 (A") (A") (A") (A") (A") (A") (A") (A") (A") (A")
                 (A") (A") (A") (A") (A") (A") (A") (A") (A") (A")
                 (A") (A") (A") (A") (A") (A") (A") (A") (A") (A")
                 (A") (A") (A") (A") (A")
 The electronic state of the initial guess is 1-A'.
 Generating alternative initial guess.
 ExpMin= 7.41D-02 ExpMax= 1.48D+04 ExpMxC= 5.05D+02 IAcc=2 IRadAn=         4 AccDes= 0.00D+00
 Harris functional with IExCor= 1009 and IRadAn=       4 diagonalized for initial guess.
 HarFok:  IExCor= 1009 AccDes= 0.00D+00 IRadAn=         4 IDoV= 1 UseB2=F ITyADJ=14
 ICtDFT=  3500011 ScaDFX=  1.000000  1.000000  1.000000  1.000000
 FoFCou: FMM=F IPFlag=           0 FMFlag=      100000 FMFlg1=           0
         NFxFlg=           0 DoJE=T BraDBF=F KetDBF=T FulRan=T
         wScrn=  0.000000 ICntrl=     500 IOpCl=  0 I1Cent=   200000004 NGrid=           0
         NMat0=    1 NMatS0=      1 NMatT0=    0 NMatD0=    1 NMtDS0=    0 NMtDT0=    0
 Petite list used in FoFCou.
 Harris En= -323.379909054171    
 Leave Link  401 at Fri Aug 27 21:29:27 2021, MaxMem= 17179869184 cpu:        92.1
 (Enter /public3/home/sc51754/softwares/g09e01/l502.exe)
 Closed shell SCF:
 Using DIIS extrapolation, IDIIS=  1040.
 Integral symmetry usage will be decided dynamically.
 Keep R1 ints in memory in symmetry-blocked form, NReq=1161351758.
 IVT=      348938 IEndB=      348938 NGot= 17179869184 MDV= 16792355177
 LenX= 16792355177 LenY= 16792252336
 Requested convergence on RMS density matrix=1.00D-08 within 128 cycles.
 Requested convergence on MAX density matrix=1.00D-06.
 Requested convergence on             energy=1.00D-06.
 No special actions if energy rises.
 FoFCou: FMM=F IPFlag=           0 FMFlag=           0 FMFlg1=           0
         NFxFlg=           0 DoJE=F BraDBF=F KetDBF=F FulRan=T
         wScrn=  0.000000 ICntrl=     600 IOpCl=  0 I1Cent=           0 NGrid=           0
         NMat0=    1 NMatS0=  39340 NMatT0=    0 NMatD0=    1 NMtDS0=    0 NMtDT0=    0
 Petite list used in FoFCou.
 Integral accuracy reduced to 1.0D-05 until final iterations.

 Cycle   1  Pass 0  IDiag  1:
 E= -323.506143359781    
 DIIS: error= 7.84D-04 at cycle   1 NSaved=   1.
 NSaved= 1 IEnMin= 1 EnMin= -323.506143359781     IErMin= 1 ErrMin= 7.84D-04
 ErrMax= 7.84D-04  0.00D+00 EMaxC= 1.00D-01 BMatC= 2.69D-04 BMatP= 2.69D-04
 IDIUse=3 WtCom= 9.92D-01 WtEn= 7.84D-03
 Coeff-Com:  0.100D+01
 Coeff-En:   0.100D+01
 Coeff:      0.100D+01
 Gap=     0.676 Goal=   None    Shift=    0.000
 RMSDP=6.11D-05 MaxDP=1.43D-03              OVMax= 2.91D-03

 Cycle   2  Pass 0  IDiag  1:
 E= -323.506347724047     Delta-E=       -0.000204364266 Rises=F Damp=F
 DIIS: error= 3.75D-04 at cycle   2 NSaved=   2.
 NSaved= 2 IEnMin= 2 EnMin= -323.506347724047     IErMin= 2 ErrMin= 3.75D-04
 ErrMax= 3.75D-04  0.00D+00 EMaxC= 1.00D-01 BMatC= 2.87D-05 BMatP= 2.69D-04
 IDIUse=3 WtCom= 9.96D-01 WtEn= 3.75D-03
 Coeff-Com:  0.154D+00 0.846D+00
 Coeff-En:   0.000D+00 0.100D+01
 Coeff:      0.153D+00 0.847D+00
 Gap=     0.290 Goal=   None    Shift=    0.000
 RMSDP=2.42D-05 MaxDP=1.14D-03 DE=-2.04D-04 OVMax= 1.63D-03

 Cycle   3  Pass 0  IDiag  1:
 E= -323.506364156458     Delta-E=       -0.000016432410 Rises=F Damp=F
 DIIS: error= 2.27D-04 at cycle   3 NSaved=   3.
 NSaved= 3 IEnMin= 3 EnMin= -323.506364156458     IErMin= 3 ErrMin= 2.27D-04
 ErrMax= 2.27D-04  0.00D+00 EMaxC= 1.00D-01 BMatC= 1.08D-05 BMatP= 2.87D-05
 IDIUse=3 WtCom= 9.98D-01 WtEn= 2.27D-03
 Coeff-Com: -0.135D-01 0.363D+00 0.650D+00
 Coeff-En:   0.000D+00 0.207D+00 0.793D+00
 Coeff:     -0.135D-01 0.363D+00 0.650D+00
 Gap=     0.291 Goal=   None    Shift=    0.000
 RMSDP=9.26D-06 MaxDP=4.58D-04 DE=-1.64D-05 OVMax= 1.35D-03

 Initial convergence to 1.0D-05 achieved.  Increase integral accuracy.
 Cycle   4  Pass 1  IDiag  1:
 E= -323.506223928139     Delta-E=        0.000140228319 Rises=F Damp=F
 DIIS: error= 2.64D-04 at cycle   1 NSaved=   1.
 NSaved= 1 IEnMin= 1 EnMin= -323.506223928139     IErMin= 1 ErrMin= 2.64D-04
 ErrMax= 2.64D-04  0.00D+00 EMaxC= 1.00D-01 BMatC= 2.12D-05 BMatP= 2.12D-05
 IDIUse=3 WtCom= 9.97D-01 WtEn= 2.64D-03
 Coeff-Com:  0.100D+01
 Coeff-En:   0.100D+01
 Coeff:      0.100D+01
 Gap=     0.291 Goal=   None    Shift=    0.000
 RMSDP=9.26D-06 MaxDP=4.58D-04 DE= 1.40D-04 OVMax= 1.37D-03

 Cycle   5  Pass 1  IDiag  1:
 E= -323.506229802020     Delta-E=       -0.000005873881 Rises=F Damp=F
 DIIS: error= 1.46D-04 at cycle   2 NSaved=   2.
 NSaved= 2 IEnMin= 2 EnMin= -323.506229802020     IErMin= 2 ErrMin= 1.46D-04
 ErrMax= 1.46D-04  0.00D+00 EMaxC= 1.00D-01 BMatC= 4.48D-06 BMatP= 2.12D-05
 IDIUse=3 WtCom= 9.99D-01 WtEn= 1.46D-03
 Coeff-Com:  0.218D+00 0.782D+00
 Coeff-En:   0.000D+00 0.100D+01
 Coeff:      0.217D+00 0.783D+00
 Gap=     0.290 Goal=   None    Shift=    0.000
 RMSDP=1.16D-05 MaxDP=4.50D-04 DE=-5.87D-06 OVMax= 1.74D-03

 Cycle   6  Pass 1  IDiag  1:
 E= -323.506229476739     Delta-E=        0.000000325281 Rises=F Damp=F
 DIIS: error= 1.51D-04 at cycle   3 NSaved=   3.
 NSaved= 3 IEnMin= 2 EnMin= -323.506229802020     IErMin= 2 ErrMin= 1.46D-04
 ErrMax= 1.51D-04  0.00D+00 EMaxC= 1.00D-01 BMatC= 4.99D-06 BMatP= 4.48D-06
 IDIUse=3 WtCom= 4.49D-01 WtEn= 5.51D-01
 Coeff-Com: -0.215D-01 0.519D+00 0.503D+00
 Coeff-En:   0.000D+00 0.516D+00 0.484D+00
 Coeff:     -0.964D-02 0.518D+00 0.492D+00
 Gap=     0.291 Goal=   None    Shift=    0.000
 RMSDP=6.06D-06 MaxDP=2.49D-04 DE= 3.25D-07 OVMax= 8.76D-04

 Cycle   7  Pass 1  IDiag  1:
 E= -323.506233685451     Delta-E=       -0.000004208712 Rises=F Damp=F
 DIIS: error= 6.62D-06 at cycle   4 NSaved=   4.
 NSaved= 4 IEnMin= 4 EnMin= -323.506233685451     IErMin= 4 ErrMin= 6.62D-06
 ErrMax= 6.62D-06  0.00D+00 EMaxC= 1.00D-01 BMatC= 1.14D-08 BMatP= 4.48D-06
 IDIUse=1 WtCom= 1.00D+00 WtEn= 0.00D+00
 Coeff-Com: -0.989D-02 0.178D+00 0.170D+00 0.662D+00
 Coeff:     -0.989D-02 0.178D+00 0.170D+00 0.662D+00
 Gap=     0.291 Goal=   None    Shift=    0.000
 RMSDP=4.11D-07 MaxDP=1.66D-05 DE=-4.21D-06 OVMax= 2.99D-05

 Cycle   8  Pass 1  IDiag  1:
 E= -323.506233693027     Delta-E=       -0.000000007576 Rises=F Damp=F
 DIIS: error= 3.85D-06 at cycle   5 NSaved=   5.
 NSaved= 5 IEnMin= 5 EnMin= -323.506233693027     IErMin= 5 ErrMin= 3.85D-06
 ErrMax= 3.85D-06  0.00D+00 EMaxC= 1.00D-01 BMatC= 3.32D-09 BMatP= 1.14D-08
 IDIUse=1 WtCom= 1.00D+00 WtEn= 0.00D+00
 Coeff-Com: -0.123D-02-0.435D-02-0.857D-02 0.337D+00 0.677D+00
 Coeff:     -0.123D-02-0.435D-02-0.857D-02 0.337D+00 0.677D+00
 Gap=     0.291 Goal=   None    Shift=    0.000
 RMSDP=1.59D-07 MaxDP=7.57D-06 DE=-7.58D-09 OVMax= 2.04D-05

 Cycle   9  Pass 1  IDiag  1:
 E= -323.506233695595     Delta-E=       -0.000000002567 Rises=F Damp=F
 DIIS: error= 1.02D-06 at cycle   6 NSaved=   6.
 NSaved= 6 IEnMin= 6 EnMin= -323.506233695595     IErMin= 6 ErrMin= 1.02D-06
 ErrMax= 1.02D-06  0.00D+00 EMaxC= 1.00D-01 BMatC= 2.69D-10 BMatP= 3.32D-09
 IDIUse=1 WtCom= 1.00D+00 WtEn= 0.00D+00
 Coeff-Com:  0.338D-03-0.187D-01-0.204D-01 0.885D-01 0.301D+00 0.649D+00
 Coeff:      0.338D-03-0.187D-01-0.204D-01 0.885D-01 0.301D+00 0.649D+00
 Gap=     0.291 Goal=   None    Shift=    0.000
 RMSDP=5.90D-08 MaxDP=2.54D-06 DE=-2.57D-09 OVMax= 6.09D-06

 Cycle  10  Pass 1  IDiag  1:
 E= -323.506233695833     Delta-E=       -0.000000000239 Rises=F Damp=F
 DIIS: error= 3.48D-07 at cycle   7 NSaved=   7.
 NSaved= 7 IEnMin= 7 EnMin= -323.506233695833     IErMin= 7 ErrMin= 3.48D-07
 ErrMax= 3.48D-07  0.00D+00 EMaxC= 1.00D-01 BMatC= 2.10D-11 BMatP= 2.69D-10
 IDIUse=1 WtCom= 1.00D+00 WtEn= 0.00D+00
 Coeff-Com:  0.274D-03-0.690D-02-0.712D-02-0.326D-02 0.491D-01 0.256D+00
[...]
 ClnCor:  largest displacement from symmetrization is 1.61D-10 for atom    10.
 Variable       Old X    -DE/DX   Delta X   Delta X   Delta X     New X
                                 (Linear)    (Quad)   (Total)
    R1        2.54348  -0.00002   0.00000  -0.00002  -0.00002   2.54345
    R2        2.58055   0.00000   0.00000   0.00003   0.00003   2.58057
    R3        2.04164  -0.00003   0.00000  -0.00008  -0.00008   2.04156
    R4        2.76501  -0.00009   0.00000  -0.00031  -0.00031   2.76471
    R5        2.03984   0.00000   0.00000   0.00000   0.00000   2.03984
    R6        2.76501  -0.00009   0.00000  -0.00031  -0.00031   2.76471
    R7        2.30678   0.00007   0.00000   0.00015   0.00015   2.30693
    R8        2.54348  -0.00002   0.00000  -0.00002  -0.00002   2.54345
    R9        2.03984   0.00000   0.00000   0.00000   0.00000   2.03984
   R10        2.58055   0.00000   0.00000   0.00003   0.00003   2.58057
   R11        2.04164  -0.00003   0.00000  -0.00008  -0.00008   2.04156
   R12        1.89597  -0.00000   0.00000  -0.00001  -0.00001   1.89596
    A1        2.12003  -0.00001   0.00000  -0.00004  -0.00004   2.11998
    A2        2.14572   0.00002   0.00000   0.00017   0.00017   2.14588
    A3        2.01744  -0.00001   0.00000  -0.00012  -0.00012   2.01732
    A4        2.11939   0.00001   0.00000   0.00001   0.00001   2.11941
    A5        2.10141  -0.00001   0.00000  -0.00008  -0.00008   2.10133
    A6        2.06238   0.00000   0.00000   0.00007   0.00007   2.06245
    A7        1.98506   0.00002   0.00000   0.00011   0.00011   1.98517
    A8        2.14906  -0.00001   0.00000  -0.00005  -0.00005   2.14901
    A9        2.14906  -0.00001   0.00000  -0.00005  -0.00005   2.14901
   A10        2.11939   0.00001   0.00000   0.00001   0.00001   2.11941
   A11        2.06238   0.00000   0.00000   0.00007   0.00007   2.06245
   A12        2.10141  -0.00001   0.00000  -0.00008  -0.00008   2.10133
   A13        2.12003  -0.00001   0.00000  -0.00004  -0.00004   2.11998
   A14        2.14572   0.00002   0.00000   0.00017   0.00017   2.14588
   A15        2.01744  -0.00001   0.00000  -0.00012  -0.00012   2.01732
   A16        2.10247  -0.00002   0.00000  -0.00004  -0.00004   2.10242
   A17        2.09036   0.00001   0.00000   0.00002   0.00002   2.09038
   A18        2.09036   0.00001   0.00000   0.00002   0.00002   2.09038
    D1       -0.00025   0.00001   0.00000   0.00025   0.00025   0.00000
    D2        3.14147   0.00001   0.00000   0.00013   0.00013   3.14159
    D3        3.14142   0.00001   0.00000   0.00018   0.00018  -3.14159
    D4       -0.00005   0.00000   0.00000   0.00005   0.00005   0.00000
    D5       -0.00005   0.00000   0.00000   0.00005   0.00005   0.00000
    D6        3.14144   0.00000   0.00000   0.00015   0.00015   3.14159
    D7        3.14148   0.00001   0.00000   0.00012   0.00012  -3.14159
    D8       -0.00022   0.00000   0.00000   0.00021   0.00021  -0.00001
    D9        0.00049  -0.00003   0.00000  -0.00050  -0.00050  -0.00001
   D10        3.14092   0.00003   0.00000   0.00066   0.00066   3.14158
   D11       -3.14122  -0.00002   0.00000  -0.00038  -0.00038   3.14159
   D12       -0.00079   0.00003   0.00000   0.00078   0.00078  -0.00001
   D13       -0.00049   0.00003   0.00000   0.00050   0.00050   0.00001
   D14        3.14122   0.00002   0.00000   0.00038   0.00038  -3.14159
   D15       -3.14092  -0.00003   0.00000  -0.00066  -0.00066  -3.14158
   D16        0.00079  -0.00003   0.00000  -0.00078  -0.00078   0.00001
   D17        0.00025  -0.00001   0.00000  -0.00025  -0.00025  -0.00000
   D18       -3.14142  -0.00001   0.00000  -0.00018  -0.00018   3.14159
   D19       -3.14147  -0.00001   0.00000  -0.00013  -0.00013  -3.14159
   D20        0.00005  -0.00000   0.00000  -0.00005  -0.00005  -0.00000
   D21        0.00005  -0.00000   0.00000  -0.00005  -0.00005  -0.00000
   D22       -3.14144  -0.00000   0.00000  -0.00015  -0.00015  -3.14159
   D23       -3.14148  -0.00001   0.00000  -0.00012  -0.00012   3.14159
   D24        0.00022  -0.00000   0.00000  -0.00021  -0.00021   0.00001
         Item               Value     Threshold  Converged?
 Maximum Force            0.000086     0.000450     YES
 RMS     Force            0.000024     0.000300     YES
 Maximum Displacement     0.000784     0.001800     YES
 RMS     Displacement     0.000150     0.001200     YES
 Predicted change in Energy=-1.151751D-07
 Optimization completed.
    -- Stationary point found.
                           ----------------------------
                           !   Optimized Parameters   !
                           ! (Angstroms and Degrees)  !
 --------------------------                            --------------------------
 ! Name  Definition              Value          Derivative Info.                !
 --------------------------------------------------------------------------------
 ! R1    R(1,2)                  1.346          -DE/DX =    0.0                 !
 ! R2    R(1,6)                  1.3656         -DE/DX =    0.0                 !
 ! R3    R(1,7)                  1.0804         -DE/DX =    0.0                 !
 ! R4    R(2,3)                  1.4632         -DE/DX =   -0.0001              !
 ! R5    R(2,8)                  1.0794         -DE/DX =    0.0                 !
 ! R6    R(3,4)                  1.4632         -DE/DX =   -0.0001              !
 ! R7    R(3,11)                 1.2207         -DE/DX =    0.0001              !
 ! R8    R(4,5)                  1.346          -DE/DX =    0.0                 !
 ! R9    R(4,9)                  1.0794         -DE/DX =    0.0                 !
 ! R10   R(5,6)                  1.3656         -DE/DX =    0.0                 !
 ! R11   R(5,10)                 1.0804         -DE/DX =    0.0                 !
 ! R12   R(6,12)                 1.0033         -DE/DX =    0.0                 !
 ! A1    A(2,1,6)              121.4686         -DE/DX =    0.0                 !
 ! A2    A(2,1,7)              122.9405         -DE/DX =    0.0                 !
 ! A3    A(6,1,7)              115.591          -DE/DX =    0.0                 !
 ! A4    A(1,2,3)              121.4322         -DE/DX =    0.0                 !
 ! A5    A(1,2,8)              120.4018         -DE/DX =    0.0                 !
 ! A6    A(3,2,8)              118.1659         -DE/DX =    0.0                 !
 ! A7    A(2,3,4)              113.7358         -DE/DX =    0.0                 !
 ! A8    A(2,3,11)             123.1321         -DE/DX =    0.0                 !
 ! A9    A(4,3,11)             123.1321         -DE/DX =    0.0                 !
 ! A10   A(3,4,5)              121.4322         -DE/DX =    0.0                 !
 ! A11   A(3,4,9)              118.1659         -DE/DX =    0.0                 !
 ! A12   A(5,4,9)              120.4018         -DE/DX =    0.0                 !
 ! A13   A(4,5,6)              121.4686         -DE/DX =    0.0                 !
 ! A14   A(4,5,10)             122.9405         -DE/DX =    0.0                 !
 ! A15   A(6,5,10)             115.591          -DE/DX =    0.0                 !
 ! A16   A(1,6,5)              120.4626         -DE/DX =    0.0                 !
 ! A17   A(1,6,12)             119.7687         -DE/DX =    0.0                 !
 ! A18   A(5,6,12)             119.7687         -DE/DX =    0.0                 !
 ! D1    D(6,1,2,3)             -0.014          -DE/DX =    0.0                 !
 ! D2    D(6,1,2,8)            179.9927         -DE/DX =    0.0                 !
 ! D3    D(7,1,2,3)           -180.0099         -DE/DX =    0.0                 !
 ! D4    D(7,1,2,8)             -0.0031         -DE/DX =    0.0                 !
 ! D5    D(2,1,6,5)             -0.0028         -DE/DX =    0.0                 !
 ! D6    D(2,1,6,12)           179.9912         -DE/DX =    0.0                 !
 ! D7    D(7,1,6,5)           -180.0067         -DE/DX =    0.0                 !
 ! D8    D(7,1,6,12)            -0.0126         -DE/DX =    0.0                 !
 ! D9    D(1,2,3,4)              0.0282         -DE/DX =    0.0                 !
 ! D10   D(1,2,3,11)           179.9616         -DE/DX =    0.0                 !
 ! D11   D(8,2,3,4)            180.0216         -DE/DX =    0.0                 !
 ! D12   D(8,2,3,11)            -0.0451         -DE/DX =    0.0                 !
 ! D13   D(2,3,4,5)             -0.0282         -DE/DX =    0.0                 !
 ! D14   D(2,3,4,9)           -180.0216         -DE/DX =    0.0                 !
 ! D15   D(11,3,4,5)          -179.9616         -DE/DX =    0.0                 !
 ! D16   D(11,3,4,9)             0.0451         -DE/DX =    0.0                 !
 ! D17   D(3,4,5,6)              0.014          -DE/DX =    0.0                 !
 ! D18   D(3,4,5,10)           180.0099         -DE/DX =    0.0                 !
 ! D19   D(9,4,5,6)           -179.9927         -DE/DX =    0.0                 !
 ! D20   D(9,4,5,10)             0.0031         -DE/DX =    0.0                 !
 ! D21   D(4,5,6,1)              0.0028         -DE/DX =    0.0                 !
 ! D22   D(4,5,6,12)          -179.9912         -DE/DX =    0.0                 !
 ! D23   D(10,5,6,1)           180.0067         -DE/DX =    0.0                 !
 ! D24   D(10,5,6,12)            0.0126         -DE/DX =    0.0                 !
 --------------------------------------------------------------------------------
 GradGradGradGradGradGradGradGradGradGradGradGradGradGradGradGradGradGrad

 Leave Link  103 at Fri Aug 27 21:30:54 2021, MaxMem= 17179869184 cpu:        19.9
 (Enter /public3/home/sc51754/softwares/g09e01/l9999.exe)
 1\1\GINC-T1507\Freq\RM062X\Gen\C5H5N1O1\SC51754\27-Aug-2021\0\\#P Geom
 =AllCheck Guess=TCheck SCRF=Check GenChk RM062X/ChkBas Freq\\4PY_M062X
 _PC2_OPT_FREQ\\0,1\C,-0.0001649167,-1.0428871889,1.1853615459\C,-0.000
 0770274,0.3024709999,1.2252876905\C,0.0003116767,1.1022039933,0.\C,-0.
 0000770274,0.3024709999,-1.2252876905\C,-0.0001649167,-1.0428871889,-1
 .1853615459\N,-0.0001808798,-1.7208901487,0.\H,-0.0002926375,-1.657006
 2424,2.0742376177\H,-0.0001837981,0.820874465,2.1720933719\H,-0.000183
 7981,0.820874465,-2.1720933719\H,-0.0002926375,-1.6570062424,-2.074237
 6177\O,-0.000284317,2.3228975042,0.\H,-0.0001137204,-2.724195416,0.\\V
 ersion=EM64L-G09RevE.01\State=1-A'\HF=-323.5062492\RMSD=1.078e-09\RMSF
 =5.417e-05\ZeroPoint=0.094276\Thermal=0.0996551\Dipole=0.0002063,-2.74
 55021,0.\DipoleDeriv=-0.0537537,0.0000347,-0.0000138,0.0001331,0.75147
 13,0.2867255,-0.000017,0.4172664,0.4574062,-0.2124307,-0.0001472,0.000
 0571,-0.0000772,-0.630163,0.0365497,-0.0000058,0.5272133,-0.1604619,0.
 2512244,0.0000213,0.,0.0001541,2.0296731,0.,0.,0.,0.5843112,-0.2124307
 ,-0.0001472,-0.0000571,-0.0000772,-0.630163,-0.0365497,0.0000058,-0.52
 72133,-0.1604619,-0.0537537,0.0000347,0.0000138,0.0001331,0.7514713,-0
 .2867255,0.000017,-0.4172664,0.4574062,-0.1949243,-0.0001411,0.,-0.000
 1001,-0.9778241,0.,0.,0.,-0.8104381,0.1474412,-0.0000636,0.,-0.0000033
 ,0.0298104,0.0588627,0.0000299,0.0489697,0.0038894,0.149454,-0.0000187
 ,0.0000249,-0.0000066,0.0560796,-0.0256989,0.0000128,-0.0151665,-0.012
 7767,0.149454,-0.0000187,-0.0000249,-0.0000066,0.0560796,0.0256989,-0.
 0000128,0.0151665,-0.0127767,0.1474412,-0.0000636,0.,-0.0000033,0.0298
 104,-0.0588627,-0.0000299,-0.0489698,0.0038894,-0.4217672,0.0004114,0.
 ,-0.0001493,-1.7725408,0.,0.,0.,-0.4856842,0.3040456,0.000098,0.,0.000
 0033,0.3062954,0.,0.,0.,0.1356972\Polar=38.1547322,0.0010314,90.50148,
 0.,0.,67.7636331\PG=CS [SG(C1H1N1O1),X(C4H4)]\NImag=0\\0.13766459,0.00
 006808,0.84335387,-0.00004025,-0.05469744,0.70443571,-0.05296872,-0.00
 003713,0.00001998,0.10540373,-0.00004337,-0.47260031,0.01680349,0.0000
 4237,0.81042062,0.00001320,-0.02090204,-0.13493225,-0.00007601,0.08068
 403,0.64839113,-0.00114950,0.00000971,-0.00000251,-0.07322957,-0.00003
 114,0.00003849,0.19848043,-0.00000828,-0.03420128,0.02286563,-0.000029
 24,-0.11233718,0.03885585,-0.00018823,0.92567187,-0.00000491,0.0415107
 7,0.04676812,0.00005213,0.02783719,-0.21898052,0.,0.,0.54320475,-0.001
 80313,-0.00000491,-0.00000476,0.00899944,0.00000248,0.00000780,-0.0732
 2957,-0.00002924,-0.00005213,0.10540373,0.00000152,-0.01106167,-0.0215
 0474,0.00000248,0.02710578,0.01158019,-0.00003114,-0.11233718,-0.02783
 719,0.00004237,0.81042062,0.00000120,0.00574264,-0.00328358,-0.0000078
 0,-0.01158019,-0.02561776,-0.00003849,-0.03885584,-0.21898053,0.000076
 01,-0.08068403,0.64839113,0.00638541,0.00000011,-0.00000014,-0.0018031
 3,0.00000152,-0.00000120,-0.00114950,-0.00000828,0.00000491,-0.0529687
 2,-0.00004337,-0.00001320,0.13766459,0.00000011,0.02249174,0.00881549,
 -0.00000491,-0.01106167,-0.00574264,0.00000971,-0.03420127,-0.04151077
 ,-0.00003713,-0.47260031,0.02090204,0.00006808,0.84335387,0.00000014,-
 0.00881549,-0.07179382,0.00000476,0.02150474,-0.00328358,0.00000251,-0
 .02286564,0.04676813,-0.00001998,-0.01680349,-0.13493225,0.00004025,0.
 05469744,0.70443571,-0.04816516,-0.00000462,0.00000294,0.01048027,0.00
 000252,-0.00000286,-0.01038068,-0.00000213,0.,0.01048027,0.00000252,0.
 00000286,-0.04816517,-0.00000462,-0.00000294,0.06780950,-0.00000380,-0
 .17945907,-0.09832466,0.00000068,-0.04306533,-0.03735506,-0.00000336,0
 .01519838,0.,0.00000068,-0.04306533,0.03735506,-0.00000380,-0.17945907
 ,0.09832466,-0.00001715,0.89677796,-0.00000161,-0.06377660,-0.28144493
 ,-0.00000616,-0.05608917,0.00863358,0.,0.,-0.06076434,0.00000616,0.056
 08917,0.00863357,0.00000161,0.06377661,-0.28144493,0.,0.,0.70774445,-0
 .04019061,-0.00001627,0.00003318,0.00744498,-0.00000479,0.00000523,0.0
 1145187,0.00000115,-0.00000282,-0.00107135,0.00000040,-0.00000023,0.00
 365426,0.00000101,0.00000082,0.00117598,-0.00000249,-0.00000338,0.0268
 2251,-0.00001872,-0.15838329,0.14167574,-0.00000906,-0.01091354,0.0268
 7199,0.00000001,-0.00290317,-0.00475281,0.00000013,0.00048988,0.000280
 54,-0.00000022,-0.00242535,-0.00202650,0.00000146,0.01317251,-0.020359
 98,0.00002442,0.16056094,0.00003085,0.13282042,-0.25202228,-0.00000179
 ,-0.00167535,0.00643568,0.00000064,-0.00180543,0.00015588,0.00000021,0
 .00065372,0.00098279,0.00000059,-0.00617052,-0.00098802,0.00000344,0.0
 1757505,-0.02660708,-0.00003298,-0.14285245,0.27188782,-0.00144293,-0.
 00000352,-0.00000219,-0.03103493,0.00001316,0.00002262,0.00458346,0.00
 000610,0.00000928,0.00322500,-0.00000138,0.00000232,0.00000288,-0.0000
 0189,0.00000017,0.00940266,-0.00000027,-0.00000003,-0.00561207,0.00000
 004,-0.00000035,0.02355004,0.00000291,-0.00915190,-0.02850180,0.000010
 05,-0.12119043,-0.12038027,-0.00000214,0.01275947,0.01522123,-0.000000
 38,-0.00206281,0.00306624,0.00000003,-0.00051348,0.00084469,-0.0000010
 9,-0.00564216,0.00133614,0.00000091,0.00067744,0.00013138,-0.00001055,
 0.12426881,-0.00000132,0.00286440,0.00335788,0.00002956,-0.12324571,-0
 .28232569,0.00000203,-0.01827329,-0.01696866,0.00000190,0.00345802,-0.
 00381788,-0.00000002,0.00178736,-0.00092597,0.00000278,0.00161782,0.00
 376333,-0.00000162,-0.00047381,0.00061961,-0.00003109,0.13174939,0.293
 14253,0.00000288,-0.00000189,-0.00000017,0.00322500,-0.00000138,-0.000
 00232,0.00458346,0.00000610,-0.00000928,-0.03103493,0.00001316,-0.0000
 2262,-0.00144293,-0.00000352,0.00000219,0.00940266,-0.00000027,0.00000
 003,-0.00071391,0.00000020,-0.00000014,-0.00100675,0.00000059,-0.00000
 065,0.02355004,0.00000003,-0.00051348,-0.00084469,-0.00000038,-0.00206
 281,-0.00306624,-0.00000214,0.01275947,-0.01522123,0.00001005,-0.12119
 043,0.12038027,0.00000291,-0.00915190,0.02850180,-0.00000109,-0.005642
 16,-0.00133614,0.00000005,0.00010625,0.00010366,0.00000059,0.00058388,
 -0.00084270,-0.00001055,0.12426881,0.00000002,-0.00178736,-0.00092597,
 -0.00000190,-0.00345802,-0.00381788,-0.00000203,0.01827329,-0.01696866
 ,-0.00002956,0.12324571,-0.28232569,0.00000132,-0.00286440,0.00335788,
 -0.00000278,-0.00161783,0.00376333,0.00000033,0.00010799,0.00004411,0.
 00000065,0.00084270,-0.00103610,0.00003109,-0.13174939,0.29314253,0.00
 365426,0.00000101,-0.00000082,-0.00107135,0.00000040,0.00000023,0.0114
 5187,0.00000115,0.00000282,0.00744498,-0.00000479,-0.00000523,-0.04019
 061,-0.00001627,-0.00003318,0.00117598,-0.00000249,0.00000338,0.001075
 89,-0.00000022,-0.00000005,-0.00071391,0.00000005,-0.00000033,-0.00561
 207,0.00000091,0.00000162,0.02682251,-0.00000022,-0.00242535,0.0020265
 0,0.00000013,0.00048988,-0.00028054,0.00000001,-0.00290317,0.00475281,
 -0.00000906,-0.01091354,-0.02687199,-0.00001872,-0.15838329,-0.1416757
 4,0.00000146,0.01317251,0.02035998,-0.00000022,0.00045508,0.00071646,0
 .00000020,0.00010625,-0.00010799,0.00000004,0.00067744,0.00047381,0.00
 002442,0.16056094,-0.00000059,0.00617052,-0.00098802,-0.00000021,-0.00
 065372,0.00098279,-0.00000064,0.00180544,0.00015588,0.00000179,0.00167
 535,0.00643568,-0.00003085,-0.13282042,-0.25202228,-0.00000344,-0.0175
 7505,-0.02660708,0.00000005,-0.00071646,-0.00102450,0.00000014,-0.0001
 0366,0.00004411,0.00000035,-0.00013138,0.00061961,0.00003298,0.1428524
 5,0.27188782,0.00415846,-0.00000428,-0.00000071,0.02135650,0.00001500,
 -0.00000329,-0.07094474,0.00025170,0.,0.02135650,0.00001500,0.00000329
 ,0.00415846,-0.00000428,0.00000071,0.00011595,0.00000269,0.,-0.0022101
 9,0.00000116,-0.00000015,-0.00271926,0.00000026,-0.00000173,-0.0027192
 6,0.00000026,0.00000173,-0.00221019,0.00000116,0.00000015,0.03001184,0
 .00000057,0.01387700,0.01073899,0.00002420,-0.06793702,0.03309033,0.00
 023811,-0.66610894,0.,0.00002420,-0.06793702,-0.03309033,0.00000057,0.
 01387700,-0.01073898,0.00000152,-0.01311171,0.,-0.00000396,-0.00195342
 ,0.00027256,-0.00000205,0.00053107,0.00112792,-0.00000205,0.00053107,-
 0.00112792,-0.00000396,-0.00195342,-0.00027256,-0.00027823,0.78839048,
 0.00000195,-0.00560966,-0.01548596,-0.00001298,0.05138255,0.01042571,0
 .,0.,-0.10236873,0.00001298,-0.05138255,0.01042571,-0.00000195,0.00560
 966,-0.01548596,0.,0.,0.01520636,0.00000162,0.00194336,0.00031520,-0.0
 0000103,-0.00288197,0.00388599,0.00000103,0.00288197,0.00388599,-0.000
 00162,-0.00194336,0.00031520,0.,0.,0.08815803,-0.00614554,-0.00000628,
 -0.00000455,0.00319777,0.00000325,-0.00000189,-0.00046754,-0.00000080,
 0.,0.00319777,0.00000325,0.00000189,-0.00614554,-0.00000628,0.00000455
 ,-0.00333226,0.00002959,0.,-0.00182736,0.00000081,-0.00000027,0.001765
 80,-0.00000062,0.00000050,0.00176580,-0.00000062,-0.00000050,-0.001827
 36,0.00000081,0.00000027,-0.00035407,0.00000110,0.,0.01017251,0.000001
 18,-0.01192627,0.00094749,0.00000080,0.00315202,-0.00335559,0.00000061
 ,-0.00139699,0.,0.00000080,0.00315201,0.00335559,0.00000118,-0.0119262
 7,-0.00094749,0.00002123,-0.46887652,0.,-0.00000018,0.00111666,0.00023
 050,-0.00000041,-0.00036614,0.00033860,-0.00000041,-0.00036614,-0.0003
 3860,-0.00000018,0.00111666,-0.00023050,-0.00000042,0.00179491,0.,-0.0
 0002420,0.48452608,0.00000131,-0.03352015,0.00631510,0.00000044,-0.001
 50985,-0.00591119,0.,0.,-0.00202133,-0.00000044,0.00150985,-0.00591119
 ,-0.00000131,0.03352015,0.00631511,0.,0.,-0.07087626,-0.00000018,0.000
 30238,0.00020079,-0.00000051,-0.00132405,0.00026085,0.00000051,0.00132
 405,0.00026085,0.00000018,-0.00030238,0.00020079,0.,0.,0.00072244,0.,0
 .,0.07044404\\-0.00000142,-0.00002981,-0.00004580,-0.00005237,-0.00004
 197,0.00008916,0.00016469,0.00018686,0.,-0.00005237,-0.00004197,-0.000
 08916,-0.00000142,-0.00002981,0.00004580,-0.00000931,0.00002735,0.,0.0
 0000525,-0.00000163,0.00003324,0.00000071,0.00000573,-0.00000449,0.000
 00071,0.00000573,0.00000449,0.00000525,-0.00000163,-0.00003324,-0.0000
 6217,-0.00007503,0.,0.00000246,-0.00000382,0.\\\@


 THE WORLD IS MADE UP OF THE WILLS, THE WON'TS, AND THE CANT'S:
 THE WILLS DO EVERYTHING,
 THE WON'TS DO NOTHING,
 THE CAN'TS CAN'T DO ANYTHING.

                               -- FROM WALT DISNEY'S "BLACK HOLE"
 Job cpu time:       0 days  0 hours 40 minutes 10.0 seconds.
 File lengths (MBytes):  RWF=     65 Int=      0 D2E=      0 Chk=      7 Scr=      1
 Normal termination of Gaussian 09 at Fri Aug 27 21:30:54 2021.
