 Entering Gaussian System, Link 0=g09
 AtFile(1): pc-2.gbs
            -H     0
            S    4   1.00
                  0.754230D+02           0.240650D-02
                  0.113500D+02           0.184870D-01
                  0.259930D+01           0.897420D-01
                  0.735130D+00           0.281110D+00
            S    1   1.00
                  0.231670D+00           0.100000D+01
            S    1   1.00
                  0.741470D-01           0.100000D+01
            P    1   1.00
                  0.160000D+01           0.100000D+01
            P    1   1.00
                  0.450000D+00           0.100000D+01
            D    1   1.00
                  0.125000D+01           0.100000D+01
            ****
            -C     0
            S    7   1.00
                  0.785710D+04           0.568250D-03
                  0.117870D+04           0.439150D-02
                  0.268320D+03           0.225040D-01
                  0.759480D+02           0.866530D-01
                  0.245590D+02           0.244050D+00
                  0.862120D+01           0.441480D+00
                  0.312780D+01           0.353320D+00
            S    7   1.00
                  0.117870D+04          -0.594920D-06
                  0.268320D+03          -0.627480D-04
                  0.759480D+02          -0.757730D-03
                  0.245590D+02          -0.733080D-02
                  0.862120D+01          -0.389320D-01
                  0.312780D+01          -0.889080D-01
                  0.822020D+00           0.216890D+00
            S    1   1.00
                  0.330170D+00           0.100000D+01
            S    1   1.00
                  0.114630D+00           0.100000D+01
            P    4   1.00
                  0.337750D+02           0.602940D-02
                  0.767660D+01           0.432280D-01
                  0.223570D+01           0.163010D+00
                  0.764470D+00           0.365040D+00
            P    1   1.00
                  0.262320D+00           0.100000D+01
            P    1   1.00
                  0.846380D-01           0.100000D+01
            D    1   1.00
                  0.140000D+01           0.100000D+01
            D    1   1.00
                  0.450000D+00           0.100000D+01
            F    1   1.00
                  0.950000D+00           0.100000D+01
            ****
            -N     0
            S    7   1.00
                  0.111010D+05           0.545700D-03
                  0.166530D+04           0.421810D-02
                  0.379080D+03           0.216450D-01
                  0.107300D+03           0.837760D-01
                  0.347470D+02           0.238810D+00
                  0.122490D+02           0.439940D+00
                  0.447430D+01           0.363640D+00
            S    7   1.00
                  0.166530D+04          -0.150060D-05
                  0.379080D+03          -0.587530D-04
                  0.107300D+03          -0.774530D-03
                  0.347470D+02          -0.721610D-02
                  0.122490D+02          -0.393380D-01
                  0.447430D+01          -0.906110D-01
                  0.124040D+01           0.198820D+00
            S    1   1.00
                  0.487430D+00           0.100000D+01
            S    1   1.00
                  0.164840D+00           0.100000D+01
            P    4   1.00
                  0.479340D+02           0.617060D-02
                  0.109990D+02           0.442600D-01
                  0.324720D+01           0.168250D+00
                  0.111140D+01           0.368480D+00
            P    1   1.00
                  0.379880D+00           0.100000D+01
            P    1   1.00
                  0.120680D+00           0.100000D+01
            D    1   1.00
                  0.180000D+01           0.100000D+01
            D    1   1.00
                  0.550000D+00           0.100000D+01
            F    1   1.00
                  0.102000D+01           0.100000D+01
            ****
            -O     0
            S    7   1.00
                  0.147820D+05           0.535190D-03
                  0.221730D+04           0.413750D-02
                  0.504740D+03           0.212450D-01
                  0.142870D+03           0.824530D-01
                  0.463000D+02           0.236710D+00
                  0.163370D+02           0.440390D+00
                  0.598280D+01           0.364650D+00
            S    7   1.00
                  0.221730D+04          -0.192750D-05
                  0.504740D+03          -0.579640D-04
                  0.142870D+03          -0.794940D-03
                  0.463000D+02          -0.731250D-02
                  0.163370D+02          -0.405740D-01
                  0.598280D+01          -0.915940D-01
                  0.167180D+01           0.209400D+00
            S    1   1.00
                  0.646620D+00           0.100000D+01
            S    1   1.00
                  0.216690D+00           0.100000D+01
            P    4   1.00
                  0.604240D+02           0.689490D-02
                  0.139350D+02           0.490050D-01
                  0.415310D+01           0.182550D+00
                  0.141580D+01           0.376330D+00
            P    1   1.00
                  0.475490D+00           0.100000D+01
            P    1   1.00
                  0.145290D+00           0.100000D+01
            D    1   1.00
                  0.220000D+01           0.100000D+01
            D    1   1.00
                  0.650000D+00           0.100000D+01
            F    1   1.00
                  0.110000D+01           0.100000D+01
            ****
 Initial command:
 /public3/home/sc51754/softwares/g09e01/l1.exe "./Gau-13477.inp" -scrdir="./"
 Entering Link 1 = /public3/home/sc51754/softwares/g09e01/l1.exe PID=     13478.
  
 Copyright (c) 1988,1990,1992,1993,1995,1998,2003,2009,2015,
            Gaussian, Inc.  All Rights Reserved.
  
 This is part of the Gaussian(R) 09 program.  It is based on
 the Gaussian(R) 03 system (copyright 2003, Gaussian, Inc.),
 the Gaussian(R) 98 system (copyright 1998, Gaussian, Inc.),
 the Gaussian(R) 94 system (copyright 1995, Gaussian, Inc.),
 the Gaussian 92(TM) system (copyright 1992, Gaussian, Inc.),
 the Gaussian 90(TM) system (copyright 1990, Gaussian, Inc.),
 the Gaussian 88(TM) system (copyright 1988, Gaussian, Inc.),
 the Gaussian 86(TM) system (copyright 1986, Carnegie Mellon
 University), and the Gaussian 82(TM) system (copyright 1983,
 Carnegie Mellon University). Gaussian is a federally registered
 trademark of Gaussian, Inc.
  
 This software contains proprietary and confidential information,
 including trade secrets, belonging to Gaussian, Inc.
  
 This software is provided under written license and may be
 used, copied, transmitted, or stored only in accord with that
 written license.
  
 The following legend is applicable only to US Government
 contracts under FAR:
  
                    RESTRICTED RIGHTS LEGEND
  
 Use, reproduction and disclosure by the US Government is
 subject to restrictions as set forth in subparagraphs (a)
 and (c) of the Commercial Computer Software - Restricted
 Rights clause in FAR 52.227-19.
  
 Gaussian, Inc.
 340 Quinnipiac St., Bldg. 40, Wallingford CT 06492
  
  
 ---------------------------------------------------------------
 Warning -- This program may not be used in any manner that
 competes with the business of Gaussian, Inc. or will provide
 assistance to any competitor of Gaussian, Inc.  The licensee
 of this program is prohibited from giving any competitor of
 Gaussian, Inc. access to this program.  By using this program,
 the user acknowledges that Gaussian, Inc. is engaged in the
 business of creating and licensing software in the field of
 computational chemistry and represents and warrants to the
 licensee that it is not a competitor of Gaussian, Inc. and that
 it will not use this program in any manner prohibited above.
 ---------------------------------------------------------------
  

 Cite this work as:
 Gaussian 09, Revision E.01,
 M. J. Frisch, G. W. Trucks, H. B. Schlegel, G. E. Scuseria, 
 M. A. Robb, J. R. Cheeseman, G. Scalmani, V. Barone, B. Mennucci, 
 G. A. Petersson, H. Nakatsuji, M. Caricato, X. Li, H. P. Hratchian, 
 A. F. Izmaylov, J. Bloino, G. Zheng, J. L. Sonnenberg, M. Hada, 
 M. Ehara, K. Toyota, R. Fukuda, J. Hasegawa, M. Ishida, T. Nakajima, 
 Y. Honda, O. Kitao, H. Nakai, T. Vreven, J. A. Montgomery, Jr., 
 J. E. Peralta, F. Ogliaro, M. Bearpark, J. J. Heyd, E. Brothers, 
 K. N. Kudin, V. N. Staroverov, T. Keith, R. Kobayashi, J. Normand, 
 K. Raghavachari, A. Rendell, J. C. Burant, S. S. Iyengar, J. Tomasi, 
 M. Cossi, N. Rega, J. M. Millam, M. Klene, J. E. Knox, J. B. Cross, 
 V. Bakken, C. Adamo, J. Jaramillo, R. Gomperts, R. E. Stratmann, 
 O. Yazyev, A. J. Austin, R. Cammi, C. Pomelli, J. W. Ochterski, 
 R. L. Martin, K. Morokuma, V. G. Zakrzewski, G. A. Voth, 
 P. Salvador, J. J. Dannenberg, S. Dapprich, A. D. Daniels, 
 O. Farkas, J. B. Foresman, J. V. Ortiz, J. Cioslowski, 
 and D. J. Fox, Gaussian, Inc., Wallingford CT, 2013.
 
 ******************************************
 Gaussian 09:  EM64L-G09RevE.01 30-Nov-2015
                27-Aug-2021 
 ******************************************
 %nprocshared=64
 Will use up to   64 processors via shared memory.
 %mem=128GB
 %chk=4PY_PBEPBE_PC2_OPT_FREQ.chk
 ----------------------
 #p opt freq PBEPBE/gen
 ----------------------
 1/14=-1,18=20,19=15,26=3,38=1/1,3;
 2/9=110,12=2,17=6,18=5,40=1/2;
 3/5=7,11=2,16=1,25=1,30=1,71=1,74=1009/1,2,3;
 4//1;
 5/5=2,38=5/2;
 6/7=2,8=2,9=2,10=2,28=1/1;
 7//1,2,3,16;
 1/14=-1,18=20,19=15,26=3/3(2);
 2/9=110/2;
 99//99;
 2/9=110/2;
 3/5=7,6=1,11=2,16=1,25=1,30=1,71=1,74=1009,82=7/1,2,3;
 4/5=5,16=3,69=1/1;
 5/5=2,38=5/2;
 7//1,2,3,16;
 1/14=-1,18=20,19=15,26=3/3(-5);
 2/9=110/2;
 6/7=2,8=2,9=2,10=2,19=2,28=1/1;
 99/9=1/99;
 Leave Link    1 at Fri Aug 27 21:10:07 2021, MaxMem= 17179869184 cpu:         4.3
 (Enter /public3/home/sc51754/softwares/g09e01/l101.exe)
 -----------------------
 4PY_PBEPBE_PC2_OPT_FREQ
 -----------------------
 Symbolic Z-matrix:
 Charge =  0 Multiplicity = 1
 C                    -0.00018  -1.04887   1.19382 
 C                    -0.00018   0.30655   1.22857 
 C                     0.00022   1.11152   0. 
 C                    -0.00018   0.30655  -1.22857 
 C                    -0.00018  -1.04887  -1.19382 
 N                     0.00002  -1.72968   0. 
 H                    -0.00063  -1.66693   2.08522 
 H                    -0.00059   0.82774   2.17893 
 H                    -0.00059   0.82774  -2.17893 
 H                    -0.00063  -1.66693  -2.08522 
 O                     0.0006    2.34525   0. 
 H                     0.00063  -2.73716   0. 
 
 NAtoms=     12 NQM=       12 NQMF=       0 NMMI=      0 NMMIF=      0
                NMic=       0 NMicF=      0.
                    Isotopes and Nuclear Properties:
 (Nuclear quadrupole moments (NQMom) in fm**2, nuclear magnetic moments (NMagM)
  in nuclear magnetons)

  Atom         1           2           3           4           5           6           7           8           9          10
 IAtWgt=          12          12          12          12          12          14           1           1           1           1
 AtmWgt=  12.0000000  12.0000000  12.0000000  12.0000000  12.0000000  14.0030740   1.0078250   1.0078250   1.0078250   1.0078250
 NucSpn=           0           0           0           0           0           2           1           1           1           1
 AtZEff=   0.0000000   0.0000000   0.0000000   0.0000000   0.0000000   0.0000000   0.0000000   0.0000000   0.0000000   0.0000000
 NQMom=    0.0000000   0.0000000   0.0000000   0.0000000   0.0000000   2.0440000   0.0000000   0.0000000   0.0000000   0.0000000
 NMagM=    0.0000000   0.0000000   0.0000000   0.0000000   0.0000000   0.4037610   2.7928460   2.7928460   2.7928460   2.7928460
 AtZNuc=   6.0000000   6.0000000   6.0000000   6.0000000   6.0000000   7.0000000   1.0000000   1.0000000   1.0000000   1.0000000

  Atom        11          12
 IAtWgt=          16           1
 AtmWgt=  15.9949146   1.0078250
 NucSpn=           0           1
 AtZEff=   0.0000000   0.0000000
 NQMom=    0.0000000   0.0000000
 NMagM=    0.0000000   2.7928460
 AtZNuc=   8.0000000   1.0000000
 Leave Link  101 at Fri Aug 27 21:10:07 2021, MaxMem= 17179869184 cpu:         7.4
 (Enter /public3/home/sc51754/softwares/g09e01/l103.exe)

 GradGradGradGradGradGradGradGradGradGradGradGradGradGradGradGradGradGrad
 Berny optimization.
 Initialization pass.
                           ----------------------------
                           !    Initial Parameters    !
                           ! (Angstroms and Degrees)  !
 --------------------------                            --------------------------
 ! Name  Definition              Value          Derivative Info.                !
 --------------------------------------------------------------------------------
 ! R1    R(1,2)                  1.3559         estimate D2E/DX2                !
 ! R2    R(1,6)                  1.3743         estimate D2E/DX2                !
 ! R3    R(1,7)                  1.0847         estimate D2E/DX2                !
 ! R4    R(2,3)                  1.4688         estimate D2E/DX2                !
 ! R5    R(2,8)                  1.0839         estimate D2E/DX2                !
 ! R6    R(3,4)                  1.4688         estimate D2E/DX2                !
 ! R7    R(3,11)                 1.2337         estimate D2E/DX2                !
 ! R8    R(4,5)                  1.3559         estimate D2E/DX2                !
 ! R9    R(4,9)                  1.0839         estimate D2E/DX2                !
 ! R10   R(5,6)                  1.3743         estimate D2E/DX2                !
 ! R11   R(5,10)                 1.0847         estimate D2E/DX2                !
 ! R12   R(6,12)                 1.0075         estimate D2E/DX2                !
 ! A1    A(2,1,6)              121.1639         estimate D2E/DX2                !
 ! A2    A(2,1,7)              123.267          estimate D2E/DX2                !
 ! A3    A(6,1,7)              115.5691         estimate D2E/DX2                !
 ! A4    A(1,2,3)              121.7645         estimate D2E/DX2                !
 ! A5    A(1,2,8)              120.2096         estimate D2E/DX2                !
 ! A6    A(3,2,8)              118.0259         estimate D2E/DX2                !
 ! A7    A(2,3,4)              113.5338         estimate D2E/DX2                !
 ! A8    A(2,3,11)             123.2331         estimate D2E/DX2                !
 ! A9    A(4,3,11)             123.2331         estimate D2E/DX2                !
 ! A10   A(3,4,5)              121.7645         estimate D2E/DX2                !
 ! A11   A(3,4,9)              118.0259         estimate D2E/DX2                !
 ! A12   A(5,4,9)              120.2096         estimate D2E/DX2                !
 ! A13   A(4,5,6)              121.1639         estimate D2E/DX2                !
 ! A14   A(4,5,10)             123.267          estimate D2E/DX2                !
 ! A15   A(6,5,10)             115.5691         estimate D2E/DX2                !
 ! A16   A(1,6,5)              120.6094         estimate D2E/DX2                !
 ! A17   A(1,6,12)             119.6953         estimate D2E/DX2                !
 ! A18   A(5,6,12)             119.6953         estimate D2E/DX2                !
 ! D1    D(6,1,2,3)             -0.0087         estimate D2E/DX2                !
 ! D2    D(6,1,2,8)            179.9852         estimate D2E/DX2                !
 ! D3    D(7,1,2,3)           -179.9904         estimate D2E/DX2                !
 ! D4    D(7,1,2,8)              0.0035         estimate D2E/DX2                !
 ! D5    D(2,1,6,5)             -0.0199         estimate D2E/DX2                !
 ! D6    D(2,1,6,12)           179.9596         estimate D2E/DX2                !
 ! D7    D(7,1,6,5)            179.9631         estimate D2E/DX2                !
 ! D8    D(7,1,6,12)            -0.0574         estimate D2E/DX2                !
 ! D9    D(1,2,3,4)              0.0339         estimate D2E/DX2                !
 ! D10   D(1,2,3,11)          -179.9797         estimate D2E/DX2                !
 ! D11   D(8,2,3,4)           -179.9602         estimate D2E/DX2                !
 ! D12   D(8,2,3,11)             0.0262         estimate D2E/DX2                !
 ! D13   D(2,3,4,5)             -0.0339         estimate D2E/DX2                !
 ! D14   D(2,3,4,9)            179.9602         estimate D2E/DX2                !
 ! D15   D(11,3,4,5)           179.9797         estimate D2E/DX2                !
 ! D16   D(11,3,4,9)            -0.0262         estimate D2E/DX2                !
 ! D17   D(3,4,5,6)              0.0087         estimate D2E/DX2                !
 ! D18   D(3,4,5,10)           179.9904         estimate D2E/DX2                !
 ! D19   D(9,4,5,6)           -179.9852         estimate D2E/DX2                !
 ! D20   D(9,4,5,10)            -0.0035         estimate D2E/DX2                !
 ! D21   D(4,5,6,1)              0.0199         estimate D2E/DX2                !
 ! D22   D(4,5,6,12)          -179.9596         estimate D2E/DX2                !
 ! D23   D(10,5,6,1)          -179.9631         estimate D2E/DX2                !
 ! D24   D(10,5,6,12)            0.0574         estimate D2E/DX2                !
 --------------------------------------------------------------------------------
 Trust Radius=3.00D-01 FncErr=1.00D-07 GrdErr=1.00D-06
 Number of steps in this run=     64 maximum allowed number of steps=    100.
 GradGradGradGradGradGradGradGradGradGradGradGradGradGradGradGradGradGrad

 Leave Link  103 at Fri Aug 27 21:10:07 2021, MaxMem= 17179869184 cpu:         0.2
 (Enter /public3/home/sc51754/softwares/g09e01/l202.exe)
                          Input orientation:                          
 ---------------------------------------------------------------------
 Center     Atomic      Atomic             Coordinates (Angstroms)
 Number     Number       Type             X           Y           Z
 ---------------------------------------------------------------------
      1          6           0       -0.000184   -1.048866    1.193818
      2          6           0       -0.000184    0.306549    1.228568
      3          6           0        0.000221    1.111516    0.000000
      4          6           0       -0.000184    0.306549   -1.228568
      5          6           0       -0.000184   -1.048866   -1.193818
      6          7           0        0.000018   -1.729678    0.000000
      7          1           0       -0.000630   -1.666925    2.085223
      8          1           0       -0.000587    0.827738    2.178925
      9          1           0       -0.000587    0.827738   -2.178925
     10          1           0       -0.000630   -1.666925   -2.085223
     11          8           0        0.000597    2.345248    0.000000
     12          1           0        0.000630   -2.737158    0.000000
 ---------------------------------------------------------------------
                    Distance matrix (angstroms):
                    1          2          3          4          5
     1  C    0.000000
     2  C    1.355860   0.000000
     3  C    2.468289   1.468792   0.000000
     4  C    2.775807   2.457136   1.468792   0.000000
     5  C    2.387636   2.775807   2.468289   1.355860   0.000000
     6  N    1.374302   2.378150   2.841194   2.378150   1.374302
     7  H    1.084712   2.151385   3.473887   3.856917   3.336781
     8  H    2.119452   1.083890   2.197327   3.447122   3.859668
     9  H    3.859668   3.447122   2.197327   1.083890   2.119452
    10  H    3.336781   3.856917   3.473887   2.151385   1.084712
    11  O    3.597946   2.380268   1.233732   2.380268   3.597946
    12  H    2.067736   3.282306   3.848674   3.282306   2.067736
                    6          7          8          9         10
     6  N    0.000000
     7  H    2.086167   0.000000
     8  H    3.359775   2.496422   0.000000
     9  H    3.359775   4.940273   4.357850   0.000000
    10  H    2.086167   4.170446   4.940273   2.496422   0.000000
    11  O    4.074926   4.521691   2.655288   2.655288   4.521691
    12  H    1.007480   2.343833   4.178062   4.178062   2.343833
                   11         12
    11  O    0.000000
    12  H    5.082406   0.000000
 Stoichiometry    C5H5NO
 Framework group  CS[SG(CHNO),X(C4H4)]
 Deg. of freedom    17
 Full point group                 CS      NOp   2
 Largest Abelian subgroup         CS      NOp   2
 Largest concise Abelian subgroup CS      NOp   2
                         Standard orientation:                         
 ---------------------------------------------------------------------
 Center     Atomic      Atomic             Coordinates (Angstroms)
 Number     Number       Type             X           Y           Z
 ---------------------------------------------------------------------
      1          6           0        0.000184    1.048866    1.193818
      2          6           0        0.000184   -0.306549    1.228568
      3          6           0       -0.000221   -1.111516   -0.000000
      4          6           0        0.000184   -0.306549   -1.228568
      5          6           0        0.000184    1.048866   -1.193818
      6          7           0       -0.000018    1.729678    0.000000
      7          1           0        0.000630    1.666925    2.085223
      8          1           0        0.000587   -0.827738    2.178925
      9          1           0        0.000587   -0.827738   -2.178925
     10          1           0        0.000630    1.666925   -2.085223
     11          8           0       -0.000597   -2.345248   -0.000000
     12          1           0       -0.000630    2.737158    0.000000
 ---------------------------------------------------------------------
 Rotational constants (GHZ):      5.6935111      2.6926956      1.8281082
 Leave Link  202 at Fri Aug 27 21:10:07 2021, MaxMem= 17179869184 cpu:         5.1
 (Enter /public3/home/sc51754/softwares/g09e01/l301.exe)
 General basis read from cards:  (5D, 7F)
 Centers:       7      8      9     10     12
 S 4 1.00
     Exponent=  7.5423000000D+01 Coefficients=  2.4065000000D-03
     Exponent=  1.1350000000D+01 Coefficients=  1.8487000000D-02
     Exponent=  2.5993000000D+00 Coefficients=  8.9742000000D-02
     Exponent=  7.3513000000D-01 Coefficients=  2.8111000000D-01
 S 1 1.00
     Exponent=  2.3167000000D-01 Coefficients=  1.0000000000D+00
 S 1 1.00
     Exponent=  7.4147000000D-02 Coefficients=  1.0000000000D+00
 P 1 1.00
     Exponent=  1.6000000000D+00 Coefficients=  1.0000000000D+00
 P 1 1.00
     Exponent=  4.5000000000D-01 Coefficients=  1.0000000000D+00
 D 1 1.00
     Exponent=  1.2500000000D+00 Coefficients=  1.0000000000D+00
 ****
 Centers:       1      2      3      4      5
 S 7 1.00
     Exponent=  7.8571000000D+03 Coefficients=  5.6825000000D-04
     Exponent=  1.1787000000D+03 Coefficients=  4.3915000000D-03
     Exponent=  2.6832000000D+02 Coefficients=  2.2504000000D-02
     Exponent=  7.5948000000D+01 Coefficients=  8.6653000000D-02
     Exponent=  2.4559000000D+01 Coefficients=  2.4405000000D-01
     Exponent=  8.6212000000D+00 Coefficients=  4.4148000000D-01
     Exponent=  3.1278000000D+00 Coefficients=  3.5332000000D-01
 S 7 1.00
     Exponent=  1.1787000000D+03 Coefficients= -5.9492000000D-07
     Exponent=  2.6832000000D+02 Coefficients= -6.2748000000D-05
     Exponent=  7.5948000000D+01 Coefficients= -7.5773000000D-04
     Exponent=  2.4559000000D+01 Coefficients= -7.3308000000D-03
     Exponent=  8.6212000000D+00 Coefficients= -3.8932000000D-02
     Exponent=  3.1278000000D+00 Coefficients= -8.8908000000D-02
     Exponent=  8.2202000000D-01 Coefficients=  2.1689000000D-01
 S 1 1.00
     Exponent=  3.3017000000D-01 Coefficients=  1.0000000000D+00
 S 1 1.00
     Exponent=  1.1463000000D-01 Coefficients=  1.0000000000D+00
 P 4 1.00
     Exponent=  3.3775000000D+01 Coefficients=  6.0294000000D-03
     Exponent=  7.6766000000D+00 Coefficients=  4.3228000000D-02
     Exponent=  2.2357000000D+00 Coefficients=  1.6301000000D-01
     Exponent=  7.6447000000D-01 Coefficients=  3.6504000000D-01
 P 1 1.00
     Exponent=  2.6232000000D-01 Coefficients=  1.0000000000D+00
 P 1 1.00
     Exponent=  8.4638000000D-02 Coefficients=  1.0000000000D+00
 D 1 1.00
     Exponent=  1.4000000000D+00 Coefficients=  1.0000000000D+00
 D 1 1.00
     Exponent=  4.5000000000D-01 Coefficients=  1.0000000000D+00
 F 1 1.00
     Exponent=  9.5000000000D-01 Coefficients=  1.0000000000D+00
 ****
 Centers:       6
 S 7 1.00
     Exponent=  1.1101000000D+04 Coefficients=  5.4570000000D-04
     Exponent=  1.6653000000D+03 Coefficients=  4.2181000000D-03
     Exponent=  3.7908000000D+02 Coefficients=  2.1645000000D-02
     Exponent=  1.0730000000D+02 Coefficients=  8.3776000000D-02
     Exponent=  3.4747000000D+01 Coefficients=  2.3881000000D-01
     Exponent=  1.2249000000D+01 Coefficients=  4.3994000000D-01
     Exponent=  4.4743000000D+00 Coefficients=  3.6364000000D-01
 S 7 1.00
     Exponent=  1.6653000000D+03 Coefficients= -1.5006000000D-06
     Exponent=  3.7908000000D+02 Coefficients= -5.8753000000D-05
     Exponent=  1.0730000000D+02 Coefficients= -7.7453000000D-04
     Exponent=  3.4747000000D+01 Coefficients= -7.2161000000D-03
     Exponent=  1.2249000000D+01 Coefficients= -3.9338000000D-02
     Exponent=  4.4743000000D+00 Coefficients= -9.0611000000D-02
     Exponent=  1.2404000000D+00 Coefficients=  1.9882000000D-01
 S 1 1.00
     Exponent=  4.8743000000D-01 Coefficients=  1.0000000000D+00
 S 1 1.00
     Exponent=  1.6484000000D-01 Coefficients=  1.0000000000D+00
 P 4 1.00
     Exponent=  4.7934000000D+01 Coefficients=  6.1706000000D-03
     Exponent=  1.0999000000D+01 Coefficients=  4.4260000000D-02
     Exponent=  3.2472000000D+00 Coefficients=  1.6825000000D-01
     Exponent=  1.1114000000D+00 Coefficients=  3.6848000000D-01
 P 1 1.00
     Exponent=  3.7988000000D-01 Coefficients=  1.0000000000D+00
 P 1 1.00
     Exponent=  1.2068000000D-01 Coefficients=  1.0000000000D+00
 D 1 1.00
     Exponent=  1.8000000000D+00 Coefficients=  1.0000000000D+00
 D 1 1.00
     Exponent=  5.5000000000D-01 Coefficients=  1.0000000000D+00
 F 1 1.00
     Exponent=  1.0200000000D+00 Coefficients=  1.0000000000D+00
 ****
 Centers:      11
 S 7 1.00
     Exponent=  1.4782000000D+04 Coefficients=  5.3519000000D-04
     Exponent=  2.2173000000D+03 Coefficients=  4.1375000000D-03
     Exponent=  5.0474000000D+02 Coefficients=  2.1245000000D-02
     Exponent=  1.4287000000D+02 Coefficients=  8.2453000000D-02
     Exponent=  4.6300000000D+01 Coefficients=  2.3671000000D-01
     Exponent=  1.6337000000D+01 Coefficients=  4.4039000000D-01
     Exponent=  5.9828000000D+00 Coefficients=  3.6465000000D-01
 S 7 1.00
     Exponent=  2.2173000000D+03 Coefficients= -1.9275000000D-06
     Exponent=  5.0474000000D+02 Coefficients= -5.7964000000D-05
     Exponent=  1.4287000000D+02 Coefficients= -7.9494000000D-04
     Exponent=  4.6300000000D+01 Coefficients= -7.3125000000D-03
     Exponent=  1.6337000000D+01 Coefficients= -4.0574000000D-02
     Exponent=  5.9828000000D+00 Coefficients= -9.1594000000D-02
     Exponent=  1.6718000000D+00 Coefficients=  2.0940000000D-01
 S 1 1.00
     Exponent=  6.4662000000D-01 Coefficients=  1.0000000000D+00
 S 1 1.00
     Exponent=  2.1669000000D-01 Coefficients=  1.0000000000D+00
 P 4 1.00
     Exponent=  6.0424000000D+01 Coefficients=  6.8949000000D-03
     Exponent=  1.3935000000D+01 Coefficients=  4.9005000000D-02
     Exponent=  4.1531000000D+00 Coefficients=  1.8255000000D-01
     Exponent=  1.4158000000D+00 Coefficients=  3.7633000000D-01
 P 1 1.00
     Exponent=  4.7549000000D-01 Coefficients=  1.0000000000D+00
 P 1 1.00
     Exponent=  1.4529000000D-01 Coefficients=  1.0000000000D+00
 D 1 1.00
     Exponent=  2.2000000000D+00 Coefficients=  1.0000000000D+00
 D 1 1.00
     Exponent=  6.5000000000D-01 Coefficients=  1.0000000000D+00
 F 1 1.00
     Exponent=  1.1000000000D+00 Coefficients=  1.0000000000D+00
 ****
 Ernie: Thresh=  0.10000D-02 Tol=  0.10000D-05 Strict=F.
 Ernie:  7 primitive shells out of 220 were deleted.
 There are   183 symmetry adapted cartesian basis functions of A'  symmetry.
 There are   137 symmetry adapted cartesian basis functions of A"  symmetry.
 There are   158 symmetry adapted basis functions of A'  symmetry.
 There are   122 symmetry adapted basis functions of A"  symmetry.
   280 basis functions,   475 primitive gaussians,   320 cartesian basis functions
    25 alpha electrons       25 beta electrons
       nuclear repulsion energy       273.2804388411 Hartrees.
 IExCor= 1009 DFT=T Ex=PBE Corr=PBE ExCW=0 ScaHFX=  0.000000
 ScaDFX=  1.000000  1.000000  1.000000  1.000000 ScalE2=  1.000000  1.000000
 IRadAn=      0 IRanWt=     -1 IRanGd=            0 ICorTp=0 IEmpDi=  4
 NAtoms=   12 NActive=   12 NUniq=    8 SFac= 2.25D+00 NAtFMM=   60 NAOKFM=F Big=F
 Integral buffers will be    131072 words long.
 Raffenetti 2 integral format.
 Two-electron integral symmetry is turned on.
 Leave Link  301 at Fri Aug 27 21:10:08 2021, MaxMem= 17179869184 cpu:         1.5
 (Enter /public3/home/sc51754/softwares/g09e01/l302.exe)
 NPDir=0 NMtPBC=     1 NCelOv=     1 NCel=       1 NClECP=     1 NCelD=      1
         NCelK=      1 NCelE2=     1 NClLst=     1 CellRange=     0.0.
 One-electron integrals computed using PRISM.
 One-electron integral symmetry used in STVInt
 NBasis=   280 RedAO= T EigKep=  1.83D-04  NBF=   158   122
 NBsUse=   280 1.00D-06 EigRej= -1.00D+00 NBFU=   158   122
 Precomputing XC quadrature grid using
 IXCGrd= 4 IRadAn=           0 IRanWt=          -1 IRanGd=           0 AccXCQ= 0.00D+00.
 Generated NRdTot=       0 NPtTot=           0 NUsed=           0 NTot=          32
 NSgBfM=   320   320   320   320   320 MxSgAt=    12 MxSgA2=    12.
 Leave Link  302 at Fri Aug 27 21:10:08 2021, MaxMem= 17179869184 cpu:        39.4
 (Enter /public3/home/sc51754/softwares/g09e01/l303.exe)
 DipDrv:  MaxL=1.
 Leave Link  303 at Fri Aug 27 21:10:09 2021, MaxMem= 17179869184 cpu:        10.7
 (Enter /public3/home/sc51754/softwares/g09e01/l401.exe)
 ExpMin= 7.41D-02 ExpMax= 1.48D+04 ExpMxC= 5.05D+02 IAcc=2 IRadAn=         4 AccDes= 0.00D+00
 Harris functional with IExCor= 1009 and IRadAn=       4 diagonalized for initial guess.
 HarFok:  IExCor= 1009 AccDes= 0.00D+00 IRadAn=         4 IDoV= 1 UseB2=F ITyADJ=14
 ICtDFT=  3500011 ScaDFX=  1.000000  1.000000  1.000000  1.000000
 FoFCou: FMM=F IPFlag=           0 FMFlag=      100000 FMFlg1=           0
         NFxFlg=           0 DoJE=T BraDBF=F KetDBF=T FulRan=T
         wScrn=  0.000000 ICntrl=     500 IOpCl=  0 I1Cent=   200000004 NGrid=           0
         NMat0=    1 NMatS0=      1 NMatT0=    0 NMatD0=    1 NMtDS0=    0 NMtDT0=    0
 Petite list used in FoFCou.
 Harris En= -323.373742033016    
 JPrj=0 DoOrth=F DoCkMO=F.
 Initial guess orbital symmetries:
       Occupied  (A') (A') (A") (A') (A") (A') (A') (A') (A') (A')
                 (A") (A") (A') (A') (A") (A') (A') (A") (A') (A')
                 (A") (A') (A") (A") (A')
       Virtual   (A') (A") (A') (A') (A") (A') (A') (A") (A') (A')
                 (A") (A') (A') (A") (A") (A") (A') (A') (A") (A')
                 (A") (A') (A") (A') (A') (A') (A") (A') (A") (A')
                 (A') (A") (A') (A') (A') (A") (A') (A") (A") (A')
                 (A") (A') (A') (A') (A") (A") (A') (A") (A") (A')
                 (A') (A") (A") (A') (A') (A') (A') (A") (A') (A')
                 (A') (A") (A') (A') (A") (A") (A') (A') (A") (A')
                 (A") (A") (A") (A') (A") (A') (A') (A") (A') (A")
                 (A') (A') (A") (A") (A') (A') (A') (A') (A") (A')
                 (A") (A") (A') (A") (A") (A') (A') (A") (A') (A')
                 (A") (A') (A") (A") (A') (A") (A') (A') (A") (A')
                 (A') (A") (A') (A") (A") (A') (A') (A') (A") (A")
                 (A") (A') (A') (A") (A') (A") (A') (A") (A") (A')
                 (A') (A") (A') (A") (A') (A') (A') (A") (A') (A')
                 (A") (A") (A") (A') (A") (A') (A') (A') (A') (A")
                 (A') (A") (A') (A') (A") (A") (A') (A") (A") (A')
                 (A') (A") (A') (A") (A') (A') (A") (A") (A") (A")
                 (A') (A') (A") (A') (A') (A") (A") (A') (A') (A')
                 (A") (A') (A") (A') (A") (A') (A') (A") (A') (A")
                 (A") (A") (A') (A') (A") (A') (A") (A') (A") (A')
                 (A') (A') (A') (A") (A") (A") (A") (A') (A') (A')
                 (A') (A') (A") (A") (A") (A') (A") (A') (A") (A')
                 (A') (A") (A") (A') (A") (A") (A') (A") (A') (A")
                 (A') (A') (A") (A') (A') (A') (A") (A") (A") (A')
                 (A') (A') (A") (A') (A") (A') (A') (A") (A') (A')
                 (A") (A') (A") (A') (A')
 The electronic state of the initial guess is 1-A'.
 Leave Link  401 at Fri Aug 27 21:10:09 2021, MaxMem= 17179869184 cpu:        39.0
 (Enter /public3/home/sc51754/softwares/g09e01/l502.exe)
 Closed shell SCF:
 Using DIIS extrapolation, IDIIS=  1040.
 Integral symmetry usage will be decided dynamically.
 Keep J ints in memory in symmetry-blocked form, NReq=1161351758.
 IVT=      348938 IEndB=      348938 NGot= 17179869184 MDV= 16792355177
 LenX= 16792355177 LenY= 16792252336
 Requested convergence on RMS density matrix=1.00D-08 within 128 cycles.
 Requested convergence on MAX density matrix=1.00D-06.
 Requested convergence on             energy=1.00D-06.
 No special actions if energy rises.
 FoFCou: FMM=F IPFlag=           0 FMFlag=           0 FMFlg1=           0
         NFxFlg=           0 DoJE=F BraDBF=F KetDBF=F FulRan=T
         wScrn=  0.000000 ICntrl=     600 IOpCl=  0 I1Cent=           0 NGrid=           0
         NMat0=    1 NMatS0=  39340 NMatT0=    0 NMatD0=    1 NMtDS0=    0 NMtDT0=    0
 Petite list used in FoFCou.
 Integral accuracy reduced to 1.0D-05 until final iterations.

 Cycle   1  Pass 0  IDiag  1:
 E= -323.068670731889    
 DIIS: error= 3.10D-02 at cycle   1 NSaved=   1.
 NSaved= 1 IEnMin= 1 EnMin= -323.068670731889     IErMin= 1 ErrMin= 3.10D-02
 ErrMax= 3.10D-02  0.00D+00 EMaxC= 1.00D-01 BMatC= 1.90D-01 BMatP= 1.90D-01
 IDIUse=3 WtCom= 6.90D-01 WtEn= 3.10D-01
 Coeff-Com:  0.100D+01
 Coeff-En:   0.100D+01
 Coeff:      0.100D+01
 Gap=    -0.048 Goal=   None    Shift=    0.000
 GapD=   -0.048 DampG=0.250 DampE=0.500 DampFc=0.2500 IDamp=-1.
 Damping current iteration by 2.50D-01
 RMSDP=1.78D-02 MaxDP=2.35D+00              OVMax= 9.91D-01

 Cycle   2  Pass 0  IDiag  1:
 E= -322.981285173067     Delta-E=        0.087385558822 Rises=F Damp=T
 DIIS: error= 1.63D-02 at cycle   2 NSaved=   2.
 NSaved= 2 IEnMin= 1 EnMin= -323.068670731889     IErMin= 2 ErrMin= 1.63D-02
 ErrMax= 1.63D-02  0.00D+00 EMaxC= 1.00D-01 BMatC= 5.40D-02 BMatP= 1.90D-01
 IDIUse=3 WtCom= 8.37D-01 WtEn= 1.63D-01
 Coeff-Com:  0.230D+00 0.770D+00
 Coeff-En:   0.648D+00 0.352D+00
 Coeff:      0.298D+00 0.702D+00
 Gap=     0.024 Goal=   None    Shift=    0.000
 RMSDP=4.57D-03 MaxDP=5.82D-01 DE= 8.74D-02 OVMax= 8.65D-01

 Cycle   3  Pass 0  IDiag  1:
 E= -323.036252155432     Delta-E=       -0.054966982365 Rises=F Damp=F
 DIIS: error= 3.50D-02 at cycle   3 NSaved=   3.
 NSaved= 3 IEnMin= 1 EnMin= -323.068670731889     IErMin= 2 ErrMin= 1.63D-02
 ErrMax= 3.50D-02  0.00D+00 EMaxC= 1.00D-01 BMatC= 1.96D-01 BMatP= 5.40D-02
 IDIUse=2 WtCom= 0.00D+00 WtEn= 1.00D+00
 EnCoef did     3 forward-backward iterations
 Coeff-En:   0.281D+00 0.332D+00 0.386D+00
 Coeff:      0.281D+00 0.332D+00 0.386D+00
 Gap=     0.118 Goal=   None    Shift=    0.000
 RMSDP=3.54D-03 MaxDP=1.32D-01 DE=-5.50D-02 OVMax= 5.50D-01

 Cycle   4  Pass 0  IDiag  1:
 E= -322.959538468739     Delta-E=        0.076713686694 Rises=F Damp=F
 DIIS: error= 4.30D-02 at cycle   4 NSaved=   4.
 NSaved= 4 IEnMin= 1 EnMin= -323.068670731889     IErMin= 2 ErrMin= 1.63D-02
 ErrMax= 4.30D-02  0.00D+00 EMaxC= 1.00D-01 BMatC= 3.05D-01 BMatP= 5.40D-02
 IDIUse=2 WtCom= 0.00D+00 WtEn= 1.00D+00
 EnCoef did     4 forward-backward iterations
 Coeff-En:   0.230D+00 0.000D+00 0.373D+00 0.396D+00
 Coeff:      0.230D+00 0.000D+00 0.373D+00 0.396D+00
 Gap=     0.118 Goal=   None    Shift=    0.000
 RMSDP=2.33D-03 MaxDP=9.96D-02 DE= 7.67D-02 OVMax= 3.10D-01

 Cycle   5  Pass 0  IDiag  1:
 E= -323.252136593662     Delta-E=       -0.292598124923 Rises=F Damp=F
 DIIS: error= 5.32D-03 at cycle   5 NSaved=   5.
 NSaved= 5 IEnMin= 5 EnMin= -323.252136593662     IErMin= 5 ErrMin= 5.32D-03
 ErrMax= 5.32D-03  0.00D+00 EMaxC= 1.00D-01 BMatC= 6.59D-03 BMatP= 5.40D-02
 IDIUse=3 WtCom= 9.47D-01 WtEn= 5.32D-02
 Coeff-Com: -0.236D-03 0.185D+00 0.180D+00 0.874D-01 0.548D+00
 Coeff-En:   0.000D+00 0.000D+00 0.000D+00 0.000D+00 0.100D+01
 Coeff:     -0.223D-03 0.175D+00 0.171D+00 0.828D-01 0.572D+00
 Gap=     0.139 Goal=   None    Shift=    0.000
 RMSDP=4.28D-04 MaxDP=2.31D-02 DE=-2.93D-01 OVMax= 5.38D-02

 Cycle   6  Pass 0  IDiag  1:
 E= -323.252484934317     Delta-E=       -0.000348340655 Rises=F Damp=F
 DIIS: error= 5.00D-03 at cycle   6 NSaved=   6.
 NSaved= 6 IEnMin= 6 EnMin= -323.252484934317     IErMin= 6 ErrMin= 5.00D-03
 ErrMax= 5.00D-03  0.00D+00 EMaxC= 1.00D-01 BMatC= 4.54D-03 BMatP= 6.59D-03
 IDIUse=3 WtCom= 9.50D-01 WtEn= 5.00D-02
 Coeff-Com: -0.736D-01 0.104D+00 0.175D-01 0.839D-02 0.383D+00 0.561D+00
 Coeff-En:   0.000D+00 0.000D+00 0.000D+00 0.000D+00 0.481D+00 0.519D+00
 Coeff:     -0.699D-01 0.988D-01 0.166D-01 0.797D-02 0.388D+00 0.559D+00
 Gap=     0.133 Goal=   None    Shift=    0.000
 RMSDP=2.03D-04 MaxDP=7.92D-03 DE=-3.48D-04 OVMax= 2.68D-02

 Cycle   7  Pass 0  IDiag  1:
 E= -323.257143268958     Delta-E=       -0.004658334641 Rises=F Damp=F
 DIIS: error= 2.53D-03 at cycle   7 NSaved=   7.
 NSaved= 7 IEnMin= 7 EnMin= -323.257143268958     IErMin= 7 ErrMin= 2.53D-03
 ErrMax= 2.53D-03  0.00D+00 EMaxC= 1.00D-01 BMatC= 7.77D-04 BMatP= 4.54D-03
 IDIUse=3 WtCom= 9.75D-01 WtEn= 2.53D-02
 Coeff-Com: -0.494D-01 0.556D-01-0.702D-02 0.105D-01 0.201D+00 0.274D+00
 Coeff-Com:  0.516D+00
 Coeff-En:   0.000D+00 0.000D+00 0.000D+00 0.000D+00 0.000D+00 0.000D+00
 Coeff-En:   0.100D+01
 Coeff:     -0.482D-01 0.542D-01-0.684D-02 0.102D-01 0.196D+00 0.267D+00
 Coeff:      0.528D+00
 Gap=     0.129 Goal=   None    Shift=    0.000
 RMSDP=6.72D-05 MaxDP=2.46D-03 DE=-4.66D-03 OVMax= 7.52D-03

 Cycle   8  Pass 0  IDiag  1:
 E= -323.257646008073     Delta-E=       -0.000502739115 Rises=F Damp=F
 DIIS: error= 1.40D-03 at cycle   8 NSaved=   8.
 NSaved= 8 IEnMin= 8 EnMin= -323.257646008073     IErMin= 8 ErrMin= 1.40D-03
 ErrMax= 1.40D-03  0.00D+00 EMaxC= 1.00D-01 BMatC= 2.79D-04 BMatP= 7.77D-04
 IDIUse=3 WtCom= 9.86D-01 WtEn= 1.40D-02
 Coeff-Com: -0.253D-01 0.243D-01-0.126D-01 0.107D-01 0.636D-01 0.534D-01
 Coeff-Com:  0.376D+00 0.510D+00
 Coeff-En:   0.000D+00 0.000D+00 0.000D+00 0.000D+00 0.000D+00 0.000D+00
 Coeff-En:   0.000D+00 0.100D+01
 Coeff:     -0.249D-01 0.240D-01-0.124D-01 0.106D-01 0.627D-01 0.526D-01
 Coeff:      0.370D+00 0.517D+00
 Gap=     0.127 Goal=   None    Shift=    0.000
 RMSDP=5.05D-05 MaxDP=1.37D-03 DE=-5.03D-04 OVMax= 8.20D-03

 Cycle   9  Pass 0  IDiag  1:
 E= -323.257946656342     Delta-E=       -0.000300648269 Rises=F Damp=F
 DIIS: error= 6.12D-04 at cycle   9 NSaved=   9.
 NSaved= 9 IEnMin= 9 EnMin= -323.257946656342     IErMin= 9 ErrMin= 6.12D-04
 ErrMax= 6.12D-04  0.00D+00 EMaxC= 1.00D-01 BMatC= 5.40D-05 BMatP= 2.79D-04
 IDIUse=3 WtCom= 9.94D-01 WtEn= 6.12D-03
 Coeff-Com: -0.252D-02 0.929D-04-0.607D-02 0.519D-02-0.203D-01-0.593D-01
 Coeff-Com: -0.501D-01 0.364D+00 0.769D+00
 Coeff-En:   0.000D+00 0.000D+00 0.000D+00 0.000D+00 0.000D+00 0.000D+00
 Coeff-En:   0.000D+00 0.000D+00 0.100D+01
 Coeff:     -0.251D-02 0.923D-04-0.603D-02 0.516D-02-0.202D-01-0.589D-01
 Coeff:     -0.498D-01 0.362D+00 0.770D+00
 Gap=     0.125 Goal=   None    Shift=    0.000
 RMSDP=3.17D-05 MaxDP=1.25D-03 DE=-3.01D-04 OVMax= 3.88D-03

 Cycle  10  Pass 0  IDiag  1:
 E= -323.257995347729     Delta-E=       -0.000048691388 Rises=F Damp=F
 DIIS: error= 8.84D-05 at cycle  10 NSaved=  10.
 NSaved=10 IEnMin=10 EnMin= -323.257995347729     IErMin=10 ErrMin= 8.84D-05
 ErrMax= 8.84D-05  0.00D+00 EMaxC= 1.00D-01 BMatC= 1.54D-06 BMatP= 5.40D-05
 IDIUse=1 WtCom= 1.00D+00 WtEn= 0.00D+00
 Coeff-Com: -0.392D-03-0.709D-03-0.298D-02 0.274D-02-0.146D-01-0.370D-01
 Coeff-Com: -0.533D-01 0.192D+00 0.484D+00 0.430D+00
 Coeff:     -0.392D-03-0.709D-03-0.298D-02 0.274D-02-0.146D-01-0.370D-01
 Coeff:     -0.533D-01 0.192D+00 0.484D+00 0.430D+00
 Gap=     0.125 Goal=   None    Shift=    0.000
 RMSDP=2.86D-06 MaxDP=2.12D-04 DE=-4.87D-05 OVMax= 4.05D-04

 Initial convergence to 1.0D-05 achieved.  Increase integral accuracy.
 Cycle  11  Pass 1  IDiag  1:
 E= -323.258038160902     Delta-E=       -0.000042813173 Rises=F Damp=F
 DIIS: error= 3.65D-05 at cycle   1 NSaved=   1.
 NSaved= 1 IEnMin= 1 EnMin= -323.258038160902     IErMin= 1 ErrMin= 3.65D-05
 ErrMax= 3.65D-05  0.00D+00 EMaxC= 1.00D-01 BMatC= 2.63D-07 BMatP= 2.63D-07
 IDIUse=1 WtCom= 1.00D+00 WtEn= 0.00D+00
 Coeff-Com:  0.100D+01
 Coeff:      0.100D+01
 Gap=     0.125 Goal=   None    Shift=    0.000
 RMSDP=2.86D-06 MaxDP=2.12D-04 DE=-4.28D-05 OVMax= 4.63D-04

 Cycle  12  Pass 1  IDiag  1:
 E= -323.258038139213     Delta-E=        0.000000021689 Rises=F Damp=F
 DIIS: error= 3.76D-05 at cycle   2 NSaved=   2.
 NSaved= 2 IEnMin= 1 EnMin= -323.258038160902     IErMin= 1 ErrMin= 3.65D-05
 ErrMax= 3.76D-05  0.00D+00 EMaxC= 1.00D-01 BMatC= 3.27D-07 BMatP= 2.63D-07
 IDIUse=1 WtCom= 1.00D+00 WtEn= 0.00D+00
 Coeff-Com:  0.538D+00 0.462D+00
 Coeff:      0.538D+00 0.462D+00
 Gap=     0.125 Goal=   None    Shift=    0.000
 RMSDP=3.17D-06 MaxDP=1.10D-04 DE= 2.17D-08 OVMax= 5.07D-04

 Cycle  13  Pass 1  IDiag  1:
 E= -323.258038243435     Delta-E=       -0.000000104221 Rises=F Damp=F
 DIIS: error= 3.77D-05 at cycle   3 NSaved=   3.
 NSaved= 3 IEnMin= 3 EnMin= -323.258038243435     IErMin= 1 ErrMin= 3.65D-05
 ErrMax= 3.77D-05  0.00D+00 EMaxC= 1.00D-01 BMatC= 2.32D-07 BMatP= 2.63D-07
 IDIUse=1 WtCom= 1.00D+00 WtEn= 0.00D+00
 Coeff-Com:  0.151D+00 0.416D+00 0.434D+00
 Coeff:      0.151D+00 0.416D+00 0.434D+00
 Gap=     0.125 Goal=   None    Shift=    0.000
 RMSDP=2.14D-06 MaxDP=8.77D-05 DE=-1.04D-07 OVMax= 3.96D-04

 Cycle  14  Pass 1  IDiag  1:
 E= -323.258038442160     Delta-E=       -0.000000198726 Rises=F Damp=F
 DIIS: error= 1.75D-05 at cycle   4 NSaved=   4.
 NSaved= 4 IEnMin= 4 EnMin= -323.258038442160     IErMin= 4 ErrMin= 1.75D-05
 ErrMax= 1.75D-05  0.00D+00 EMaxC= 1.00D-01 BMatC= 6.38D-08 BMatP= 2.32D-07
 IDIUse=1 WtCom= 1.00D+00 WtEn= 0.00D+00
 Coeff-Com:  0.104D-02 0.264D+00 0.367D+00 0.368D+00
 Coeff:      0.104D-02 0.264D+00 0.367D+00 0.368D+00
 Gap=     0.125 Goal=   None    Shift=    0.000
 RMSDP=7.15D-07 MaxDP=3.36D-05 DE=-1.99D-07 OVMax= 1.26D-04

 Cycle  15  Pass 1  IDiag  1:
 E= -323.258038494979     Delta-E=       -0.000000052819 Rises=F Damp=F
 DIIS: error= 2.46D-06 at cycle   5 NSaved=   5.
 NSaved= 5 IEnMin= 5 EnMin= -323.258038494979     IErMin= 5 ErrMin= 2.46D-06
 ErrMax= 2.46D-06  0.00D+00 EMaxC= 1.00D-01 BMatC= 1.25D-09 BMatP= 6.38D-08
 IDIUse=1 WtCom= 1.00D+00 WtEn= 0.00D+00
 Coeff-Com: -0.402D-02 0.156D+00 0.217D+00 0.236D+00 0.395D+00
 Coeff:     -0.402D-02 0.156D+00 0.217D+00 0.236D+00 0.395D+00
 Gap=     0.125 Goal=   None    Shift=    0.000
 RMSDP=1.09D-07 MaxDP=4.68D-06 DE=-5.28D-08 OVMax= 1.59D-05

 Cycle  16  Pass 1  IDiag  1:
 E= -323.258038495844     Delta-E=       -0.000000000864 Rises=F Damp=F
 DIIS: error= 1.21D-06 at cycle   6 NSaved=   6.
 NSaved= 6 IEnMin= 6 EnMin= -323.258038495844     IErMin= 6 ErrMin= 1.21D-06
 ErrMax= 1.21D-06  0.00D+00 EMaxC= 1.00D-01 BMatC= 2.37D-10 BMatP= 1.25D-09
 IDIUse=1 WtCom= 1.00D+00 WtEn= 0.00D+00
 Coeff-Com: -0.304D-02 0.687D-01 0.933D-01 0.112D+00 0.295D+00 0.435D+00
 Coeff:     -0.304D-02 0.687D-01 0.933D-01 0.112D+00 0.295D+00 0.435D+00
 Gap=     0.125 Goal=   None    Shift=    0.000
 RMSDP=4.38D-08 MaxDP=1.84D-06 DE=-8.64D-10 OVMax= 5.57D-06

 Cycle  17  Pass 1  IDiag  1:
 E= -323.258038496065     Delta-E=       -0.000000000221 Rises=F Damp=F
 DIIS: error= 1.77D-07 at cycle   7 NSaved=   7.
 NSaved= 7 IEnMin= 7 EnMin= -323.258038496065     IErMin= 7 ErrMin= 1.77D-07
 ErrMax= 1.77D-07  0.00D+00 EMaxC= 1.00D-01 BMatC= 6.39D-12 BMatP= 2.37D-10
 IDIUse=1 WtCom= 1.00D+00 WtEn= 0.00D+00
 Coeff-Com: -0.122D-02 0.271D-01 0.364D-01 0.446D-01 0.133D+00 0.239D+00
 Coeff-Com:  0.520D+00
 Coeff:     -0.122D-02 0.271D-01 0.364D-01 0.446D-01 0.133D+00 0.239D+00
 Coeff:      0.520D+00
 Gap=     0.125 Goal=   None    Shift=    0.000
 RMSDP=1.02D-08 MaxDP=3.08D-07 DE=-2.21D-10 OVMax= 7.05D-07

 Cycle  18  Pass 1  IDiag  1:
 E= -323.258038496078     Delta-E=       -0.000000000013 Rises=F Damp=F
 DIIS: error= 4.84D-08 at cycle   8 NSaved=   8.
 NSaved= 8 IEnMin= 8 EnMin= -323.258038496078     IErMin= 8 ErrMin= 4.84D-08
 ErrMax= 4.84D-08  0.00D+00 EMaxC= 1.00D-01 BMatC= 4.25D-13 BMatP= 6.39D-12
 IDIUse=1 WtCom= 1.00D+00 WtEn= 0.00D+00
 Coeff-Com: -0.141D-03 0.281D-02 0.385D-02 0.475D-02 0.198D-01 0.530D-01
 Coeff-Com:  0.235D+00 0.681D+00
 Coeff:     -0.141D-03 0.281D-02 0.385D-02 0.475D-02 0.198D-01 0.530D-01
 Coeff:      0.235D+00 0.681D+00
 Gap=     0.125 Goal=   None    Shift=    0.000
 RMSDP=3.03D-09 MaxDP=1.20D-07 DE=-1.32D-11 OVMax= 3.55D-07

 SCF Done:  E(RPBE-PBE) =  -323.258038496     A.U. after   18 cycles
            NFock= 18  Conv=0.30D-08     -V/T= 2.0032
 KE= 3.222141564379D+02 PE=-1.301557482432D+03 EE= 3.828048486574D+02
 Leave Link  502 at Fri Aug 27 21:10:16 2021, MaxMem= 17179869184 cpu:       240.1
 (Enter /public3/home/sc51754/softwares/g09e01/l601.exe)
 Copying SCF densities to generalized density rwf, IOpCl= 0 IROHF=0.

 **********************************************************************

            Population analysis using the SCF density.

 **********************************************************************

 Orbital symmetries:
       Occupied  (A') (A') (A") (A') (A') (A") (A') (A') (A') (A')
                 (A") (A") (A') (A') (A") (A') (A") (A') (A') (A")
                 (A') (A') (A") (A') (A")
       Virtual   (A") (A') (A') (A") (A') (A") (A') (A') (A') (A')
                 (A') (A") (A') (A") (A") (A") (A') (A') (A") (A")
                 (A') (A') (A") (A') (A') (A') (A") (A') (A") (A')
                 (A') (A') (A") (A') (A') (A') (A") (A") (A") (A")
                 (A') (A') (A') (A") (A') (A") (A') (A") (A") (A')
                 (A') (A") (A') (A") (A') (A') (A') (A") (A') (A')
                 (A') (A") (A') (A") (A') (A") (A') (A') (A") (A")
                 (A') (A') (A") (A") (A") (A') (A') (A") (A") (A')
                 (A') (A') (A") (A") (A') (A') (A') (A') (A") (A')
                 (A") (A") (A') (A') (A") (A") (A') (A') (A") (A')
                 (A") (A') (A") (A") (A") (A') (A') (A') (A") (A')
                 (A') (A") (A') (A") (A') (A") (A') (A') (A") (A")
                 (A") (A') (A') (A") (A') (A") (A') (A") (A') (A')
                 (A") (A") (A') (A") (A') (A') (A') (A") (A') (A')
                 (A") (A") (A") (A') (A") (A') (A') (A') (A') (A")
                 (A') (A") (A') (A') (A") (A') (A") (A") (A") (A')
                 (A') (A") (A') (A") (A") (A') (A") (A') (A") (A")
                 (A') (A') (A") (A') (A') (A') (A") (A") (A') (A")
                 (A') (A') (A') (A") (A") (A') (A") (A') (A') (A")
                 (A") (A') (A") (A") (A') (A') (A') (A') (A") (A")
                 (A') (A') (A") (A') (A") (A") (A') (A") (A') (A')
                 (A') (A") (A') (A") (A") (A') (A") (A') (A") (A')
                 (A') (A") (A") (A") (A') (A") (A') (A") (A') (A")
                 (A') (A') (A") (A') (A') (A") (A') (A") (A") (A')
                 (A') (A") (A') (A') (A") (A') (A') (A") (A') (A')
                 (A") (A') (A") (A') (A')
 The electronic state is 1-A'.
 Alpha  occ. eigenvalues --  -18.69315 -14.06327  -9.94826  -9.94826  -9.94358
 Alpha  occ. eigenvalues --   -9.89158  -9.89158  -0.92125  -0.90821  -0.72089
 Alpha  occ. eigenvalues --   -0.72032  -0.59288  -0.56779  -0.54075  -0.45883
 Alpha  occ. eigenvalues --   -0.43069  -0.41121  -0.39807  -0.39620  -0.33667
 Alpha  occ. eigenvalues --   -0.33528  -0.32714  -0.26293  -0.20442  -0.18321
 Alpha virt. eigenvalues --   -0.05796  -0.05660  -0.03290   0.01350   0.02570
 Alpha virt. eigenvalues --    0.05694   0.05867   0.08007   0.10049   0.12810
 Alpha virt. eigenvalues --    0.12869   0.13046   0.13715   0.16358   0.16543
 Alpha virt. eigenvalues --    0.19596   0.19802   0.19991   0.24586   0.24934
 Alpha virt. eigenvalues --    0.24999   0.26392   0.26576   0.26753   0.27335
 Alpha virt. eigenvalues --    0.28311   0.30610   0.31409   0.32433   0.36699
 Alpha virt. eigenvalues --    0.39536   0.40327   0.41338   0.42267   0.44876
 Alpha virt. eigenvalues --    0.46195   0.46707   0.51089   0.51756   0.53459
 Alpha virt. eigenvalues --    0.54057   0.55996   0.59808   0.61588   0.65460
 Alpha virt. eigenvalues --    0.67257   0.67546   0.69931   0.72459   0.75438
 Alpha virt. eigenvalues --    0.75746   0.79420   0.84227   0.84810   0.85131
 Alpha virt. eigenvalues --    0.89638   0.92721   0.92934   0.94068   1.00524
 Alpha virt. eigenvalues --    1.04307   1.05219   1.05536   1.05653   1.07684
 Alpha virt. eigenvalues --    1.11401   1.12919   1.13740   1.15274   1.16317
 Alpha virt. eigenvalues --    1.18385   1.18716   1.19861   1.21936   1.26676
 Alpha virt. eigenvalues --    1.27568   1.27927   1.35481   1.36307   1.37943
 Alpha virt. eigenvalues --    1.38984   1.40055   1.40290   1.40344   1.48008
 Alpha virt. eigenvalues --    1.49140   1.52239   1.56059   1.58196   1.58264
 Alpha virt. eigenvalues --    1.59363   1.62137   1.67553   1.69288   1.69604
 Alpha virt. eigenvalues --    1.69844   1.74546   1.74784   1.76297   1.82169
 Alpha virt. eigenvalues --    1.83248   1.86504   1.88658   1.93142   1.95276
 Alpha virt. eigenvalues --    1.95484   2.02309   2.04327   2.08310   2.10455
 Alpha virt. eigenvalues --    2.11986   2.14136   2.16197   2.19207   2.31886
 Alpha virt. eigenvalues --    2.31908   2.41551   2.42379   2.54840   2.70676
 Alpha virt. eigenvalues --    2.77308   2.82048   2.85451   2.85721   3.03503
 Alpha virt. eigenvalues --    3.07170   3.10119   3.11443   3.14494   3.14672
 Alpha virt. eigenvalues --    3.17437   3.20504   3.23243   3.25830   3.26406
 Alpha virt. eigenvalues --    3.34257   3.36776   3.41304   3.43648   3.45532
 Alpha virt. eigenvalues --    3.49218   3.53421   3.54234   3.55662   3.56742
 Alpha virt. eigenvalues --    3.58498   3.60162   3.67150   3.72524   3.79018
 Alpha virt. eigenvalues --    3.85700   3.85801   3.86453   3.87203   3.89108
 Alpha virt. eigenvalues --    3.91457   3.93133   3.93786   3.98122   3.98900
 Alpha virt. eigenvalues --    3.99289   4.01954   4.02031   4.05166   4.08694
 Alpha virt. eigenvalues --    4.09121   4.09843   4.10662   4.12823   4.13287
 Alpha virt. eigenvalues --    4.13767   4.17356   4.19719   4.19990   4.20971
 Alpha virt. eigenvalues --    4.22885   4.23313   4.24519   4.28124   4.29000
 Alpha virt. eigenvalues --    4.30290   4.32164   4.35600   4.36486   4.37886
 Alpha virt. eigenvalues --    4.37889   4.43004   4.43265   4.44561   4.46995
 Alpha virt. eigenvalues --    4.51459   4.51613   4.51975   4.56526   4.57135
 Alpha virt. eigenvalues --    4.61751   4.66701   4.67869   4.68408   4.68947
 Alpha virt. eigenvalues --    4.77241   4.83869   4.84717   4.84794   4.86660
 Alpha virt. eigenvalues --    4.89351   4.97588   4.99527   5.01585   5.09132
 Alpha virt. eigenvalues --    5.09642   5.14788   5.17651   5.18306   5.19415
 Alpha virt. eigenvalues --    5.23526   5.24693   5.32904   5.34200   5.34540
 Alpha virt. eigenvalues --    5.36851   5.39071   5.45945   5.50415   5.50541
 Alpha virt. eigenvalues --    5.50763   5.57518   5.59790   5.62909   5.67246
 Alpha virt. eigenvalues --    5.68367   5.79519   5.82048   5.84635   5.85406
 Alpha virt. eigenvalues --    5.98322   5.99481   6.04125   6.06756   6.14011
 Alpha virt. eigenvalues --    6.25639   6.39592   6.40725   6.41196   6.72253
 Alpha virt. eigenvalues --    6.78319   6.84500   7.10080   9.35479  12.25266
 Alpha virt. eigenvalues --   12.41103  15.14183  16.78411  18.22587  22.37562
          Condensed to atoms (all electrons):
               1          2          3          4          5          6
     1  C    4.749381   0.519141  -0.026614  -0.036754  -0.072231   0.386462
     2  C    0.519141   5.033288   0.384321  -0.021553  -0.036754  -0.061287
     3  C   -0.026614   0.384321   4.440354   0.384321  -0.026614  -0.010532
     4  C   -0.036754  -0.021553   0.384321   5.033288   0.519141  -0.061287
     5  C   -0.072231  -0.036754  -0.026614   0.519141   4.749381   0.386462
     6  N    0.386462  -0.061287  -0.010532  -0.061287   0.386462   6.263397
     7  H    0.393278  -0.011414   0.003891  -0.006526   0.005836  -0.035785
     8  H   -0.035630   0.417304  -0.036004   0.016949  -0.001516   0.004772
     9  H   -0.001516   0.016949  -0.036004   0.417304  -0.035630   0.004772
    10  H    0.005836  -0.006526   0.003891  -0.011414   0.393278  -0.035785
    11  O    0.011099  -0.096017   0.599317  -0.096017   0.011099   0.000740
    12  H   -0.030247   0.006851  -0.000828   0.006851  -0.030247   0.409817
               7          8          9         10         11         12
     1  C    0.393278  -0.035630  -0.001516   0.005836   0.011099  -0.030247
     2  C   -0.011414   0.417304   0.016949  -0.006526  -0.096017   0.006851
     3  C    0.003891  -0.036004  -0.036004   0.003891   0.599317  -0.000828
     4  C   -0.006526   0.016949   0.417304  -0.011414  -0.096017   0.006851
     5  C    0.005836  -0.001516  -0.035630   0.393278   0.011099  -0.030247
     6  N   -0.035785   0.004772   0.004772  -0.035785   0.000740   0.409817
     7  H    0.605017  -0.008045   0.000448  -0.001486  -0.001029  -0.008413
     8  H   -0.008045   0.580280  -0.000156   0.000448   0.010792  -0.000619
     9  H    0.000448  -0.000156   0.580280  -0.008045   0.010792  -0.000619
    10  H   -0.001486   0.000448  -0.008045   0.605017  -0.001029  -0.008413
    11  O   -0.001029   0.010792   0.010792  -0.001029   7.990811   0.000093
    12  H   -0.008413  -0.000619  -0.000619  -0.008413   0.000093   0.502158
 Mulliken charges:
               1
     1  C    0.137795
     2  C   -0.144304
     3  C    0.320500
     4  C   -0.144304
     5  C    0.137795
     6  N   -0.251748
     7  H    0.064226
     8  H    0.051424
     9  H    0.051424
    10  H    0.064226
    11  O   -0.440651
    12  H    0.153616
 Sum of Mulliken charges =  -0.00000
 Mulliken charges with hydrogens summed into heavy atoms:
               1
     1  C    0.202021
     2  C   -0.092880
     3  C    0.320500
     4  C   -0.092880
     5  C    0.202021
     6  N   -0.098132
    11  O   -0.440651
 Electronic spatial extent (au):  <R**2>=            641.3588
 Charge=             -0.0000 electrons
 Dipole moment (field-independent basis, Debye):
    X=              0.0013    Y=              6.8160    Z=              0.0000  Tot=              6.8160
 Quadrupole moment (field-independent basis, Debye-Ang):
   XX=            -43.2641   YY=            -42.3293   ZZ=            -34.9022
   XY=             -0.0053   XZ=              0.0000   YZ=              0.0000
 Traceless Quadrupole moment (field-independent basis, Debye-Ang):
   XX=             -3.0989   YY=             -2.1641   ZZ=              5.2630
   XY=             -0.0053   XZ=              0.0000   YZ=              0.0000
 Octapole moment (field-independent basis, Debye-Ang**2):
  XXX=             -0.0038  YYY=             56.4305  ZZZ=              0.0000  XYY=              0.0020
  XXY=             -2.1933  XXZ=              0.0000  XZZ=              0.0088  YZZ=              3.3932
  YYZ=             -0.0000  XYZ=              0.0000
 Hexadecapole moment (field-independent basis, Debye-Ang**3):
 XXXX=            -47.8628 YYYY=           -495.8697 ZZZZ=           -268.5920 XXXY=             -0.0321
 XXXZ=             -0.0000 YYYX=             -0.0734 YYYZ=             -0.0000 ZZZX=             -0.0000
 ZZZY=             -0.0000 XXYY=            -93.1705 XXZZ=            -65.2594 YYZZ=           -119.1350
 XXYZ=             -0.0000 YYXZ=             -0.0000 ZZXY=             -0.0068
 N-N= 2.732804388411D+02 E-N=-1.301557489701D+03  KE= 3.222141564379D+02
 Symmetry A'   KE= 2.363802903794D+02
 Symmetry A"   KE= 8.583386605854D+01
 No NMR shielding tensors so no spin-rotation constants.
 Leave Link  601 at Fri Aug 27 21:10:17 2021, MaxMem= 17179869184 cpu:       105.1
 (Enter /public3/home/sc51754/softwares/g09e01/l701.exe)
 Compute integral first derivatives.
 ... and contract with generalized density number  0.
 Leave Link  701 at Fri Aug 27 21:10:18 2021, MaxMem= 17179869184 cpu:        45.8
 (Enter /public3/home/sc51754/softwares/g09e01/l702.exe)
 L702 exits ... SP integral derivatives will be done elsewhere.
 Leave Link  702 at Fri Aug 27 21:10:18 2021, MaxMem= 17179869184 cpu:         0.2
 (Enter /public3/home/sc51754/softwares/g09e01/l703.exe)
 Compute integral first derivatives, UseDBF=F ICtDFT=           0.
 Integral derivatives from FoFJK, PRISM(SPDF).
 Calling FoFJK, ICntrl=      2527 FMM=F ISym2X=1 I1Cent= 0 IOpClX= 0 NMat=1 NMatS=1 NMatT=0.
 FoFJK:  IHMeth= 1 ICntrl=    2527 DoSepK=F KAlg= 0 I1Cent=   0 FoldK=F
 IRaf=         0 NMat=   1 IRICut=       1 DoRegI=T DoRafI=F ISym2E= 1.
 FoFCou: FMM=F IPFlag=           0 FMFlag=      100000 FMFlg1=         800
         NFxFlg=           0 DoJE=F BraDBF=F KetDBF=F FulRan=T
         wScrn=  0.000000 ICntrl=    2527 IOpCl=  0 I1Cent=           0 NGrid=           0
         NMat0=    1 NMatS0=      1 NMatT0=    0 NMatD0=    1 NMtDS0=    0 NMtDT0=    0
 Petite list used in FoFCou.
 Leave Link  703 at Fri Aug 27 21:10:21 2021, MaxMem= 17179869184 cpu:       108.4
 (Enter /public3/home/sc51754/softwares/g09e01/l716.exe)
 Dipole        = 5.00199450D-04 2.68161949D+00 8.86536813D-16
 ***** Axes restored to original set *****
 -------------------------------------------------------------------
 Center     Atomic                   Forces (Hartrees/Bohr)
 Number     Number              X              Y              Z
 -------------------------------------------------------------------
      1        6          -0.000004425   -0.001919348   -0.002854990
      2        6           0.000000716    0.001716328   -0.003981196
      3        6          -0.000017515   -0.007564156    0.000000000
      4        6           0.000000716    0.001716328    0.003981196
      5        6          -0.000004425   -0.001919348    0.002854990
      6        7          -0.000001400    0.004991824    0.000000000
      7        1           0.000011630   -0.002070541    0.002653712
      8        1           0.000004484    0.001510414    0.002996393
      9        1           0.000004484    0.001510414   -0.002996393
     10        1           0.000011630   -0.002070541   -0.002653712
     11        8           0.000004778    0.008052591   -0.000000000
     12        1          -0.000010673   -0.003953966   -0.000000000
 -------------------------------------------------------------------
 Cartesian Forces:  Max     0.008052591 RMS     0.002733805
 Leave Link  716 at Fri Aug 27 21:10:21 2021, MaxMem= 17179869184 cpu:         0.4
 (Enter /public3/home/sc51754/softwares/g09e01/l103.exe)

 GradGradGradGradGradGradGradGradGradGradGradGradGradGradGradGradGradGrad
 Berny optimization.
 FormGI is forming the generalized inverse of G from B-inverse, IUseBI=4.
 Internal  Forces:  Max     0.008052593 RMS     0.001680366
 Search for a local minimum.
 Step number   1 out of a maximum of   64
 All quantities printed in internal units (Hartrees-Bohrs-Radians)
 RMS Force = .16804D-02 SwitMx=.10000D-02 MixMth= 1
 Mixed Optimization -- RFO/linear search
 Second derivative matrix not updated -- first step.
 ITU=  0
     Eigenvalues ---    0.01179   0.01465   0.01838   0.01956   0.02032
     Eigenvalues ---    0.02219   0.02234   0.02399   0.02441   0.16000
     Eigenvalues ---    0.16000   0.16000   0.16000   0.16000   0.22000
     Eigenvalues ---    0.22000   0.23391   0.25000   0.34645   0.35229
     Eigenvalues ---    0.35431   0.35431   0.35528   0.35528   0.46397
     Eigenvalues ---    0.47941   0.48075   0.51510   0.53792   0.89549
 RFO step:  Lambda=-2.87529757D-04 EMin= 1.17876314D-02
 Linear search not attempted -- first point.
 Iteration  1 RMS(Cart)=  0.00395866 RMS(Int)=  0.00000249
 Iteration  2 RMS(Cart)=  0.00000257 RMS(Int)=  0.00000028
 Iteration  3 RMS(Cart)=  0.00000000 RMS(Int)=  0.00000028
 ITry= 1 IFail=0 DXMaxC= 1.46D-02 DCOld= 1.00D+10 DXMaxT= 3.00D-01 DXLimC= 3.00D+00 Rises=F
 ClnCor:  largest displacement from symmetrization is 5.70D-12 for atom    10.
 Variable       Old X    -DE/DX   Delta X   Delta X   Delta X     New X
                                 (Linear)    (Quad)   (Total)
    R1        2.56220   0.00346   0.00000   0.00643   0.00643   2.56863
    R2        2.59705  -0.00078   0.00000  -0.00159  -0.00158   2.59547
    R3        2.04981   0.00336   0.00000   0.00948   0.00948   2.05929
    R4        2.77562  -0.00035   0.00000  -0.00095  -0.00095   2.77467
    R5        2.04825   0.00335   0.00000   0.00943   0.00943   2.05769
    R6        2.77562  -0.00035   0.00000  -0.00095  -0.00095   2.77467
    R7        2.33142   0.00805   0.00000   0.00899   0.00899   2.34041
    R8        2.56220   0.00346   0.00000   0.00643   0.00643   2.56863
    R9        2.04825   0.00335   0.00000   0.00943   0.00943   2.05769
   R10        2.59705  -0.00078   0.00000  -0.00159  -0.00158   2.59547
   R11        2.04981   0.00336   0.00000   0.00948   0.00948   2.05929
   R12        1.90386   0.00395   0.00000   0.00852   0.00852   1.91238
    A1        2.11471  -0.00021   0.00000  -0.00105  -0.00105   2.11366
    A2        2.15142   0.00030   0.00000   0.00174   0.00174   2.15315
    A3        2.01706  -0.00009   0.00000  -0.00068  -0.00069   2.01638
    A4        2.12519   0.00043   0.00000   0.00193   0.00193   2.12712
    A5        2.09805  -0.00033   0.00000  -0.00171  -0.00171   2.09634
    A6        2.05994  -0.00009   0.00000  -0.00022  -0.00022   2.05972
    A7        1.98154  -0.00062   0.00000  -0.00242  -0.00242   1.97912
    A8        2.15082   0.00031   0.00000   0.00121   0.00121   2.15203
    A9        2.15082   0.00031   0.00000   0.00121   0.00121   2.15203
   A10        2.12519   0.00043   0.00000   0.00193   0.00193   2.12712
   A11        2.05994  -0.00009   0.00000  -0.00022  -0.00022   2.05972
   A12        2.09805  -0.00033   0.00000  -0.00171  -0.00171   2.09634
   A13        2.11471  -0.00021   0.00000  -0.00105  -0.00105   2.11366
   A14        2.15142   0.00030   0.00000   0.00174   0.00174   2.15315
   A15        2.01706  -0.00009   0.00000  -0.00068  -0.00069   2.01638
   A16        2.10503   0.00018   0.00000   0.00066   0.00066   2.10570
   A17        2.08908  -0.00009   0.00000  -0.00033  -0.00033   2.08874
   A18        2.08908  -0.00009   0.00000  -0.00033  -0.00033   2.08874
    D1       -0.00015   0.00000   0.00000   0.00008   0.00008  -0.00007
    D2        3.14133   0.00000   0.00000   0.00018   0.00018   3.14152
    D3       -3.14143  -0.00000   0.00000  -0.00014  -0.00014  -3.14156
    D4        0.00006  -0.00000   0.00000  -0.00004  -0.00004   0.00003
    D5       -0.00035   0.00001   0.00000   0.00035   0.00035   0.00000
    D6        3.14089   0.00000   0.00000   0.00016   0.00016   3.14105
    D7        3.14095   0.00001   0.00000   0.00055   0.00055   3.14150
    D8       -0.00100   0.00001   0.00000   0.00036   0.00036  -0.00064
    D9        0.00059  -0.00001   0.00000  -0.00046  -0.00046   0.00013
   D10       -3.14124   0.00000   0.00000   0.00014   0.00014  -3.14110
   D11       -3.14090  -0.00001   0.00000  -0.00056  -0.00056  -3.14146
   D12        0.00046  -0.00000   0.00000   0.00004   0.00004   0.00050
   D13       -0.00059   0.00001   0.00000   0.00046   0.00046  -0.00013
   D14        3.14090   0.00001   0.00000   0.00056   0.00056   3.14146
   D15        3.14124  -0.00000   0.00000  -0.00014  -0.00014   3.14110
   D16       -0.00046   0.00000   0.00000  -0.00004  -0.00004  -0.00050
   D17        0.00015  -0.00000   0.00000  -0.00008  -0.00008   0.00007
   D18        3.14143   0.00000   0.00000   0.00014   0.00014   3.14156
   D19       -3.14133  -0.00000   0.00000  -0.00018  -0.00018  -3.14152
   D20       -0.00006   0.00000   0.00000   0.00004   0.00004  -0.00003
   D21        0.00035  -0.00001   0.00000  -0.00035  -0.00035  -0.00000
   D22       -3.14089  -0.00000   0.00000  -0.00016  -0.00016  -3.14105
   D23       -3.14095  -0.00001   0.00000  -0.00055  -0.00055  -3.14150
   D24        0.00100  -0.00001   0.00000  -0.00036  -0.00036   0.00064
         Item               Value     Threshold  Converged?
 Maximum Force            0.008053     0.000450     NO 
 RMS     Force            0.001680     0.000300     NO 
 Maximum Displacement     0.014568     0.001800     NO 
 RMS     Displacement     0.003959     0.001200     NO 
 Predicted change in Energy=-1.438563D-04
 Lowest energy point so far.  Saving SCF results.
 GradGradGradGradGradGradGradGradGradGradGradGradGradGradGradGradGradGrad

 Leave Link  103 at Fri Aug 27 21:10:22 2021, MaxMem= 17179869184 cpu:        56.1
 (Enter /public3/home/sc51754/softwares/g09e01/l202.exe)
                          Input orientation:                          
 ---------------------------------------------------------------------
 Center     Atomic      Atomic             Coordinates (Angstroms)
 Number     Number       Type             X           Y           Z
 ---------------------------------------------------------------------
      1          6           0       -0.000213   -1.050551    1.193316
      2          6           0       -0.000212    0.308289    1.227174
      3          6           0       -0.000125    1.114468    0.000000
      4          6           0       -0.000212    0.308289   -1.227174
      5          6           0       -0.000213   -1.050551   -1.193316
      6          7           0       -0.000215   -1.730551   -0.000000
      7          1           0       -0.000304   -1.672378    2.088210
      8          1           0       -0.000281    0.830933    2.182424
      9          1           0       -0.000281    0.830933   -2.182424
     10          1           0       -0.000304   -1.672378   -2.088210
     11          8           0        0.000392    2.352957    0.000000
     12          1           0        0.000263   -2.742538   -0.000000
 ---------------------------------------------------------------------
                    Distance matrix (angstroms):
                    1          2          3          4          5
     1  C    0.000000
     2  C    1.359261   0.000000
     3  C    2.472106   1.468292   0.000000
     4  C    2.775826   2.454347   1.468292   0.000000
     5  C    2.386631   2.775826   2.472106   1.359261   0.000000
     6  N    1.373464   2.379668   2.845019   2.379668   1.373464
     7  H    1.089727   2.159728   3.482403   3.861970   3.339922
     8  H    2.125633   1.088880   2.200765   3.449422   3.864660
     9  H    3.864660   3.449422   2.200765   1.088880   2.125633
    10  H    3.339922   3.861970   3.482403   2.159728   1.089727
    11  O    3.606643   2.384664   1.238489   2.384664   3.606643
    12  H    2.070464   3.288388   3.857006   3.288388   2.070464
                    6          7          8          9         10
     6  N    0.000000
     7  H    2.089020   0.000000
     8  H    3.365141   2.505083   0.000000
     9  H    3.365141   4.950240   4.364849   0.000000
    10  H    2.089020   4.176420   4.950240   2.505083   0.000000
    11  O    4.083508   4.534749   2.660740   2.660740   4.534749
    12  H    1.011987   2.346457   4.187203   4.187203   2.346457
                   11         12
    11  O    0.000000
    12  H    5.095495   0.000000
 Stoichiometry    C5H5NO
 Framework group  CS[SG(CHNO),X(C4H4)]
 Deg. of freedom    17
 Full point group                 CS      NOp   2
 RotChk:  IX=3 Diff= 1.04D-06
 Largest Abelian subgroup         CS      NOp   2
 Largest concise Abelian subgroup CS      NOp   2
                         Standard orientation:                         
 ---------------------------------------------------------------------
 Center     Atomic      Atomic             Coordinates (Angstroms)
 Number     Number       Type             X           Y           Z
 ---------------------------------------------------------------------
      1          6           0        0.000110    1.051832    1.193316
      2          6           0        0.000110   -0.307008    1.227174
      3          6           0        0.000023   -1.113188   -0.000000
      4          6           0        0.000110   -0.307008   -1.227174
      5          6           0        0.000110    1.051832   -1.193316
      6          7           0        0.000111    1.731832    0.000000
      7          1           0        0.000200    1.673659    2.088210
      8          1           0        0.000179   -0.829652    2.182424
      9          1           0        0.000179   -0.829652   -2.182424
     10          1           0        0.000200    1.673659   -2.088210
     11          8           0       -0.000493   -2.351677   -0.000000
     12          1           0       -0.000368    2.743819    0.000000
 ---------------------------------------------------------------------
 Rotational constants (GHZ):      5.6970466      2.6801963      1.8227003
 Leave Link  202 at Fri Aug 27 21:10:22 2021, MaxMem= 17179869184 cpu:         4.2
 (Enter /public3/home/sc51754/softwares/g09e01/l301.exe)
 Basis read from rwf:  (5D, 7F)
 No pseudopotential information found on rwf file.
 There are   183 symmetry adapted cartesian basis functions of A'  symmetry.
 There are   137 symmetry adapted cartesian basis functions of A"  symmetry.
 There are   158 symmetry adapted basis functions of A'  symmetry.
 There are   122 symmetry adapted basis functions of A"  symmetry.
   280 basis functions,   475 primitive gaussians,   320 cartesian basis functions
    25 alpha electrons       25 beta electrons
       nuclear repulsion energy       272.8950222286 Hartrees.
 IExCor= 1009 DFT=T Ex=PBE Corr=PBE ExCW=0 ScaHFX=  0.000000
 ScaDFX=  1.000000  1.000000  1.000000  1.000000 ScalE2=  1.000000  1.000000
 IRadAn=      0 IRanWt=     -1 IRanGd=            0 ICorTp=0 IEmpDi=  4
 NAtoms=   12 NActive=   12 NUniq=    8 SFac= 2.25D+00 NAtFMM=   60 NAOKFM=F Big=F
 Integral buffers will be    131072 words long.
 Raffenetti 2 integral format.
 Two-electron integral symmetry is turned on.
 No density basis found on file   724.
 Leave Link  301 at Fri Aug 27 21:10:22 2021, MaxMem= 17179869184 cpu:         1.1
 (Enter /public3/home/sc51754/softwares/g09e01/l302.exe)
 NPDir=0 NMtPBC=     1 NCelOv=     1 NCel=       1 NClECP=     1 NCelD=      1
         NCelK=      1 NCelE2=     1 NClLst=     1 CellRange=     0.0.
 One-electron integrals computed using PRISM.
 One-electron integral symmetry used in STVInt
 NBasis=   280 RedAO= T EigKep=  1.85D-04  NBF=   158   122
 NBsUse=   280 1.00D-06 EigRej= -1.00D+00 NBFU=   158   122
 Precomputing XC quadrature grid using
 IXCGrd= 4 IRadAn=           0 IRanWt=          -1 IRanGd=           0 AccXCQ= 0.00D+00.
 Generated NRdTot=       0 NPtTot=           0 NUsed=           0 NTot=          32
 NSgBfM=   320   320   320   320   320 MxSgAt=    12 MxSgA2=    12.
 Leave Link  302 at Fri Aug 27 21:10:23 2021, MaxMem= 17179869184 cpu:        49.5
 (Enter /public3/home/sc51754/softwares/g09e01/l303.exe)
 DipDrv:  MaxL=1.
 Leave Link  303 at Fri Aug 27 21:10:24 2021, MaxMem= 17179869184 cpu:        11.2
 (Enter /public3/home/sc51754/softwares/g09e01/l401.exe)
 Initial guess from the checkpoint file:  "4PY_PBEPBE_PC2_OPT_FREQ.chk"
 B after Tr=     0.000000    0.000000   -0.000000
         Rot=    1.000000    0.000000   -0.000000   -0.000014 Ang=  -0.00 deg.
 Guess basis will be translated and rotated to current coordinates.
 JPrj=2 DoOrth=T DoCkMO=T.
 Initial guess orbital symmetries:
       Occupied  (A') (A') (A") (A') (A') (A") (A') (A') (A') (A')
                 (A") (A") (A') (A') (A") (A') (A") (A') (A') (A")
                 (A') (A') (A") (A') (A")
       Virtual   (A') (A') (A') (A') (A') (A') (A') (A') (A') (A')
                 (A') (A') (A') (A') (A') (A') (A') (A') (A') (A')
                 (A') (A') (A') (A') (A') (A') (A') (A') (A') (A')
                 (A') (A') (A') (A') (A') (A') (A') (A') (A') (A')
                 (A') (A') (A') (A') (A') (A') (A') (A') (A') (A')
                 (A') (A') (A') (A') (A') (A') (A') (A') (A') (A')
                 (A') (A') (A') (A') (A') (A') (A') (A') (A') (A')
                 (A') (A') (A') (A') (A') (A') (A') (A') (A') (A')
                 (A') (A') (A') (A') (A') (A') (A') (A') (A') (A')
                 (A') (A') (A') (A') (A') (A') (A') (A') (A') (A')
                 (A') (A') (A') (A') (A') (A') (A') (A') (A') (A')
                 (A') (A') (A') (A') (A') (A') (A') (A') (A') (A')
                 (A') (A') (A') (A') (A') (A') (A') (A') (A') (A')
                 (A') (A') (A') (A') (A') (A') (A') (A') (A') (A')
                 (A') (A') (A") (A") (A") (A") (A") (A") (A") (A")
                 (A") (A") (A") (A") (A") (A") (A") (A") (A") (A")
                 (A") (A") (A") (A") (A") (A") (A") (A") (A") (A")
                 (A") (A") (A") (A") (A") (A") (A") (A") (A") (A")
                 (A") (A") (A") (A") (A") (A") (A") (A") (A") (A")
                 (A") (A") (A") (A") (A") (A") (A") (A") (A") (A")
                 (A") (A") (A") (A") (A") (A") (A") (A") (A") (A")
                 (A") (A") (A") (A") (A") (A") (A") (A") (A") (A")
                 (A") (A") (A") (A") (A") (A") (A") (A") (A") (A")
                 (A") (A") (A") (A") (A") (A") (A") (A") (A") (A")
                 (A") (A") (A") (A") (A") (A") (A") (A") (A") (A")
                 (A") (A") (A") (A") (A")
 The electronic state of the initial guess is 1-A'.
 Leave Link  401 at Fri Aug 27 21:10:24 2021, MaxMem= 17179869184 cpu:        26.8
 (Enter /public3/home/sc51754/softwares/g09e01/l502.exe)
 Closed shell SCF:
 Using DIIS extrapolation, IDIIS=  1040.
 Integral symmetry usage will be decided dynamically.
 Keep J ints in memory in symmetry-blocked form, NReq=1161351758.
 IVT=      348938 IEndB=      348938 NGot= 17179869184 MDV= 16792355177
 LenX= 16792355177 LenY= 16792252336
 Requested convergence on RMS density matrix=1.00D-08 within 128 cycles.
 Requested convergence on MAX density matrix=1.00D-06.
 Requested convergence on             energy=1.00D-06.
 No special actions if energy rises.
 FoFCou: FMM=F IPFlag=           0 FMFlag=           0 FMFlg1=           0
         NFxFlg=           0 DoJE=F BraDBF=F KetDBF=F FulRan=T
         wScrn=  0.000000 ICntrl=     600 IOpCl=  0 I1Cent=           0 NGrid=           0
         NMat0=    1 NMatS0=  39340 NMatT0=    0 NMatD0=    1 NMtDS0=    0 NMtDT0=    0
 Petite list used in FoFCou.

 Cycle   1  Pass 1  IDiag  1:
 E= -323.258148845643    
 DIIS: error= 3.48D-04 at cycle   1 NSaved=   1.
 NSaved= 1 IEnMin= 1 EnMin= -323.258148845643     IErMin= 1 ErrMin= 3.48D-04
 ErrMax= 3.48D-04  0.00D+00 EMaxC= 1.00D-01 BMatC= 4.51D-05 BMatP= 4.51D-05
 IDIUse=3 WtCom= 9.97D-01 WtEn= 3.48D-03
 Coeff-Com:  0.100D+01
 Coeff-En:   0.100D+01
 Coeff:      0.100D+01
 Gap=     0.503 Goal=   None    Shift=    0.000
 RMSDP=2.86D-05 MaxDP=8.94D-04              OVMax= 3.06D-03

 Cycle   2  Pass 1  IDiag  1:
 E= -323.258184618779     Delta-E=       -0.000035773135 Rises=F Damp=F
 DIIS: error= 1.54D-04 at cycle   2 NSaved=   2.
 NSaved= 2 IEnMin= 2 EnMin= -323.258184618779     IErMin= 2 ErrMin= 1.54D-04
 ErrMax= 1.54D-04  0.00D+00 EMaxC= 1.00D-01 BMatC= 7.12D-06 BMatP= 4.51D-05
 IDIUse=3 WtCom= 9.98D-01 WtEn= 1.54D-03
 Coeff-Com:  0.220D+00 0.780D+00
 Coeff-En:   0.000D+00 0.100D+01
 Coeff:      0.219D+00 0.781D+00
 Gap=     0.124 Goal=   None    Shift=    0.000
 RMSDP=1.41D-05 MaxDP=4.76D-04 DE=-3.58D-05 OVMax= 1.75D-03

 Cycle   3  Pass 1  IDiag  1:
 E= -323.258185250403     Delta-E=       -0.000000631624 Rises=F Damp=F
 DIIS: error= 1.48D-04 at cycle   3 NSaved=   3.
 NSaved= 3 IEnMin= 3 EnMin= -323.258185250403     IErMin= 3 ErrMin= 1.48D-04
 ErrMax= 1.48D-04  0.00D+00 EMaxC= 1.00D-01 BMatC= 6.24D-06 BMatP= 7.12D-06
 IDIUse=3 WtCom= 9.99D-01 WtEn= 1.48D-03
 Coeff-Com:  0.677D-01 0.479D+00 0.454D+00
 Coeff-En:   0.000D+00 0.478D+00 0.522D+00
 Coeff:      0.676D-01 0.479D+00 0.454D+00
 Gap=     0.124 Goal=   None    Shift=    0.000
 RMSDP=8.58D-06 MaxDP=4.18D-04 DE=-6.32D-07 OVMax= 1.28D-03

 Cycle   4  Pass 1  IDiag  1:
 E= -323.258190066015     Delta-E=       -0.000004815613 Rises=F Damp=F
 DIIS: error= 7.98D-05 at cycle   4 NSaved=   4.
 NSaved= 4 IEnMin= 4 EnMin= -323.258190066015     IErMin= 4 ErrMin= 7.98D-05
 ErrMax= 7.98D-05  0.00D+00 EMaxC= 1.00D-01 BMatC= 1.41D-06 BMatP= 6.24D-06
 IDIUse=1 WtCom= 1.00D+00 WtEn= 0.00D+00
 Coeff-Com:  0.179D-01 0.252D+00 0.327D+00 0.403D+00
 Coeff:      0.179D-01 0.252D+00 0.327D+00 0.403D+00
 Gap=     0.124 Goal=   None    Shift=    0.000
 RMSDP=4.68D-06 MaxDP=1.50D-04 DE=-4.82D-06 OVMax= 7.92D-04

 Cycle   5  Pass 1  IDiag  1:
 E= -323.258191280017     Delta-E=       -0.000001214001 Rises=F Damp=F
 DIIS: error= 3.75D-05 at cycle   5 NSaved=   5.
 NSaved= 5 IEnMin= 5 EnMin= -323.258191280017     IErMin= 5 ErrMin= 3.75D-05
 ErrMax= 3.75D-05  0.00D+00 EMaxC= 1.00D-01 BMatC= 2.93D-07 BMatP= 1.41D-06
 IDIUse=1 WtCom= 1.00D+00 WtEn= 0.00D+00
 Coeff-Com:  0.370D-02 0.111D+00 0.182D+00 0.321D+00 0.382D+00
 Coeff:      0.370D-02 0.111D+00 0.182D+00 0.321D+00 0.382D+00
 Gap=     0.124 Goal=   None    Shift=    0.000
 RMSDP=2.09D-06 MaxDP=8.49D-05 DE=-1.21D-06 OVMax= 3.96D-04

 Cycle   6  Pass 1  IDiag  1:
 E= -323.258191553446     Delta-E=       -0.000000273429 Rises=F Damp=F
 DIIS: error= 1.68D-05 at cycle   6 NSaved=   6.
 NSaved= 6 IEnMin= 6 EnMin= -323.258191553446     IErMin= 6 ErrMin= 1.68D-05
 ErrMax= 1.68D-05  0.00D+00 EMaxC= 1.00D-01 BMatC= 4.24D-08 BMatP= 2.93D-07
 IDIUse=1 WtCom= 1.00D+00 WtEn= 0.00D+00
 Coeff-Com:  0.905D-03 0.644D-01 0.108D+00 0.208D+00 0.297D+00 0.321D+00
 Coeff:      0.905D-03 0.644D-01 0.108D+00 0.208D+00 0.297D+00 0.321D+00
 Gap=     0.124 Goal=   None    Shift=    0.000
 RMSDP=7.02D-07 MaxDP=3.60D-05 DE=-2.73D-07 OVMax= 1.10D-04

 Cycle   7  Pass 1  IDiag  1:
 E= -323.258191588850     Delta-E=       -0.000000035403 Rises=F Damp=F
 DIIS: error= 3.28D-06 at cycle   7 NSaved=   7.
 NSaved= 7 IEnMin= 7 EnMin= -323.258191588850     IErMin= 7 ErrMin= 3.28D-06
 ErrMax= 3.28D-06  0.00D+00 EMaxC= 1.00D-01 BMatC= 2.64D-09 BMatP= 4.24D-08
 IDIUse=1 WtCom= 1.00D+00 WtEn= 0.00D+00
 Coeff-Com: -0.224D-03 0.170D-01 0.331D-01 0.717D-01 0.127D+00 0.214D+00
 Coeff-Com:  0.538D+00
 Coeff:     -0.224D-03 0.170D-01 0.331D-01 0.717D-01 0.127D+00 0.214D+00
 Coeff:      0.538D+00
 Gap=     0.124 Goal=   None    Shift=    0.000
 RMSDP=1.89D-07 MaxDP=7.52D-06 DE=-3.54D-08 OVMax= 2.00D-05

 Cycle   8  Pass 1  IDiag  1:
 E= -323.258191590781     Delta-E=       -0.000000001931 Rises=F Damp=F
 DIIS: error= 1.23D-06 at cycle   8 NSaved=   8.
 NSaved= 8 IEnMin= 8 EnMin= -323.258191590781     IErMin= 8 ErrMin= 1.23D-06
 ErrMax= 1.23D-06  0.00D+00 EMaxC= 1.00D-01 BMatC= 2.59D-10 BMatP= 2.64D-09
 IDIUse=1 WtCom= 1.00D+00 WtEn= 0.00D+00
 Coeff-Com: -0.172D-03 0.742D-02 0.152D-01 0.337D-01 0.660D-01 0.115D+00
 Coeff-Com:  0.350D+00 0.413D+00
 Coeff:     -0.172D-03 0.742D-02 0.152D-01 0.337D-01 0.660D-01 0.115D+00
 Coeff:      0.350D+00 0.413D+00
 Gap=     0.124 Goal=   None    Shift=    0.000
 RMSDP=5.65D-08 MaxDP=1.96D-06 DE=-1.93D-09 OVMax= 5.25D-06

 Cycle   9  Pass 1  IDiag  1:
[...]
 ITry= 1 IFail=0 DXMaxC= 2.24D-04 DCOld= 1.00D+10 DXMaxT= 3.00D-01 DXLimC= 3.00D+00 Rises=F
 ClnCor:  largest displacement from symmetrization is 1.02D-09 for atom     9.
 Variable       Old X    -DE/DX   Delta X   Delta X   Delta X     New X
                                 (Linear)    (Quad)   (Total)
    R1        2.56937  -0.00002   0.00000  -0.00004  -0.00004   2.56932
    R2        2.59452   0.00002   0.00000   0.00005   0.00005   2.59457
    R3        2.05906   0.00000   0.00000   0.00002   0.00002   2.05908
    R4        2.77135   0.00002   0.00000   0.00009   0.00009   2.77144
    R5        2.05784  -0.00001   0.00000  -0.00002  -0.00002   2.05782
    R6        2.77135   0.00002   0.00000   0.00009   0.00009   2.77144
    R7        2.34360  -0.00004   0.00000  -0.00008  -0.00008   2.34353
    R8        2.56937  -0.00002   0.00000  -0.00004  -0.00004   2.56932
    R9        2.05784  -0.00001   0.00000  -0.00002  -0.00002   2.05782
   R10        2.59452   0.00002   0.00000   0.00005   0.00005   2.59457
   R11        2.05906   0.00000   0.00000   0.00002   0.00002   2.05908
   R12        1.91272  -0.00001   0.00000  -0.00003  -0.00003   1.91269
    A1        2.11268   0.00001   0.00000   0.00003   0.00003   2.11272
    A2        2.15295  -0.00000   0.00000   0.00000   0.00000   2.15295
    A3        2.01755  -0.00000   0.00000  -0.00003  -0.00003   2.01752
    A4        2.12688  -0.00000   0.00000  -0.00001  -0.00001   2.12686
    A5        2.09467   0.00000   0.00000   0.00003   0.00003   2.09470
    A6        2.06164   0.00000   0.00000  -0.00002  -0.00002   2.06162
    A7        1.98067   0.00000   0.00000  -0.00001  -0.00001   1.98066
    A8        2.15126  -0.00000   0.00000   0.00001   0.00000   2.15126
    A9        2.15126  -0.00000   0.00000   0.00001   0.00000   2.15126
   A10        2.12688  -0.00000   0.00000  -0.00001  -0.00001   2.12686
   A11        2.06164   0.00000   0.00000  -0.00002  -0.00002   2.06162
   A12        2.09467   0.00000   0.00000   0.00003   0.00003   2.09470
   A13        2.11268   0.00001   0.00000   0.00003   0.00003   2.11272
   A14        2.15295  -0.00000   0.00000   0.00000   0.00000   2.15295
   A15        2.01755  -0.00000   0.00000  -0.00003  -0.00003   2.01752
   A16        2.10658  -0.00001   0.00000  -0.00003  -0.00003   2.10655
   A17        2.08830   0.00000   0.00000   0.00002   0.00002   2.08832
   A18        2.08830   0.00000   0.00000   0.00002   0.00002   2.08832
    D1       -0.00010   0.00000   0.00000   0.00010   0.00010   0.00000
    D2        3.14154   0.00000   0.00000   0.00005   0.00005   3.14159
    D3        3.14153   0.00000   0.00000   0.00006   0.00006  -3.14159
    D4       -0.00001   0.00000   0.00000   0.00001   0.00001  -0.00000
    D5        0.00003   0.00000   0.00000  -0.00003  -0.00003  -0.00000
    D6        3.14141   0.00000   0.00000   0.00018   0.00018  -3.14159
    D7        3.14159   0.00000   0.00000   0.00000   0.00000   3.14159
    D8       -0.00022   0.00000   0.00000   0.00022   0.00022   0.00000
    D9        0.00015  -0.00001   0.00000  -0.00015  -0.00015  -0.00000
   D10        3.14143   0.00001   0.00000   0.00016   0.00016   3.14159
   D11       -3.14149  -0.00000   0.00000  -0.00011  -0.00011  -3.14159
   D12       -0.00020   0.00001   0.00000   0.00020   0.00020   0.00000
   D13       -0.00015   0.00001   0.00000   0.00015   0.00015   0.00000
   D14        3.14149   0.00000   0.00000   0.00011   0.00011   3.14159
   D15       -3.14143  -0.00001   0.00000  -0.00016  -0.00016  -3.14159
   D16        0.00020  -0.00001   0.00000  -0.00020  -0.00020   0.00000
   D17        0.00010  -0.00000   0.00000  -0.00010  -0.00010  -0.00000
   D18       -3.14153  -0.00000   0.00000  -0.00006  -0.00006   3.14159
   D19       -3.14154  -0.00000   0.00000  -0.00005  -0.00005  -3.14159
   D20        0.00001  -0.00000   0.00000  -0.00001  -0.00001   0.00000
   D21       -0.00003  -0.00000   0.00000   0.00003   0.00003   0.00000
   D22       -3.14141  -0.00000   0.00000  -0.00018  -0.00018   3.14159
   D23       -3.14159  -0.00000   0.00000  -0.00000  -0.00000  -3.14159
   D24        0.00022  -0.00000   0.00000  -0.00022  -0.00022  -0.00000
         Item               Value     Threshold  Converged?
 Maximum Force            0.000040     0.000450     YES
 RMS     Force            0.000009     0.000300     YES
 Maximum Displacement     0.000224     0.001800     YES
 RMS     Displacement     0.000050     0.001200     YES
 Predicted change in Energy=-1.128266D-08
 Optimization completed.
    -- Stationary point found.
                           ----------------------------
                           !   Optimized Parameters   !
                           ! (Angstroms and Degrees)  !
 --------------------------                            --------------------------
 ! Name  Definition              Value          Derivative Info.                !
 --------------------------------------------------------------------------------
 ! R1    R(1,2)                  1.3597         -DE/DX =    0.0                 !
 ! R2    R(1,6)                  1.373          -DE/DX =    0.0                 !
 ! R3    R(1,7)                  1.0896         -DE/DX =    0.0                 !
 ! R4    R(2,3)                  1.4665         -DE/DX =    0.0                 !
 ! R5    R(2,8)                  1.089          -DE/DX =    0.0                 !
 ! R6    R(3,4)                  1.4665         -DE/DX =    0.0                 !
 ! R7    R(3,11)                 1.2402         -DE/DX =    0.0                 !
 ! R8    R(4,5)                  1.3597         -DE/DX =    0.0                 !
 ! R9    R(4,9)                  1.089          -DE/DX =    0.0                 !
 ! R10   R(5,6)                  1.373          -DE/DX =    0.0                 !
 ! R11   R(5,10)                 1.0896         -DE/DX =    0.0                 !
 ! R12   R(6,12)                 1.0122         -DE/DX =    0.0                 !
 ! A1    A(2,1,6)              121.0479         -DE/DX =    0.0                 !
 ! A2    A(2,1,7)              123.3549         -DE/DX =    0.0                 !
 ! A3    A(6,1,7)              115.5972         -DE/DX =    0.0                 !
 ! A4    A(1,2,3)              121.861          -DE/DX =    0.0                 !
 ! A5    A(1,2,8)              120.0155         -DE/DX =    0.0                 !
 ! A6    A(3,2,8)              118.1234         -DE/DX =    0.0                 !
 ! A7    A(2,3,4)              113.4839         -DE/DX =    0.0                 !
 ! A8    A(2,3,11)             123.2581         -DE/DX =    0.0                 !
 ! A9    A(4,3,11)             123.2581         -DE/DX =    0.0                 !
 ! A10   A(3,4,5)              121.861          -DE/DX =    0.0                 !
 ! A11   A(3,4,9)              118.1234         -DE/DX =    0.0                 !
 ! A12   A(5,4,9)              120.0155         -DE/DX =    0.0                 !
 ! A13   A(4,5,6)              121.0479         -DE/DX =    0.0                 !
 ! A14   A(4,5,10)             123.3549         -DE/DX =    0.0                 !
 ! A15   A(6,5,10)             115.5972         -DE/DX =    0.0                 !
 ! A16   A(1,6,5)              120.6982         -DE/DX =    0.0                 !
 ! A17   A(1,6,12)             119.6509         -DE/DX =    0.0                 !
 ! A18   A(5,6,12)             119.6509         -DE/DX =    0.0                 !
 ! D1    D(6,1,2,3)             -0.0056         -DE/DX =    0.0                 !
 ! D2    D(6,1,2,8)            179.9969         -DE/DX =    0.0                 !
 ! D3    D(7,1,2,3)           -180.0034         -DE/DX =    0.0                 !
 ! D4    D(7,1,2,8)             -0.0009         -DE/DX =    0.0                 !
 ! D5    D(2,1,6,5)              0.0018         -DE/DX =    0.0                 !
 ! D6    D(2,1,6,12)          -180.0104         -DE/DX =    0.0                 !
 ! D7    D(7,1,6,5)            179.9998         -DE/DX =    0.0                 !
 ! D8    D(7,1,6,12)            -0.0125         -DE/DX =    0.0                 !
 ! D9    D(1,2,3,4)              0.0086         -DE/DX =    0.0                 !
 ! D10   D(1,2,3,11)           179.9909         -DE/DX =    0.0                 !
 ! D11   D(8,2,3,4)           -179.9939         -DE/DX =    0.0                 !
 ! D12   D(8,2,3,11)            -0.0116         -DE/DX =    0.0                 !
 ! D13   D(2,3,4,5)             -0.0086         -DE/DX =    0.0                 !
 ! D14   D(2,3,4,9)            179.9939         -DE/DX =    0.0                 !
 ! D15   D(11,3,4,5)          -179.9909         -DE/DX =    0.0                 !
 ! D16   D(11,3,4,9)             0.0116         -DE/DX =    0.0                 !
 ! D17   D(3,4,5,6)              0.0056         -DE/DX =    0.0                 !
 ! D18   D(3,4,5,10)           180.0034         -DE/DX =    0.0                 !
 ! D19   D(9,4,5,6)           -179.9969         -DE/DX =    0.0                 !
 ! D20   D(9,4,5,10)             0.0009         -DE/DX =    0.0                 !
 ! D21   D(4,5,6,1)             -0.0018         -DE/DX =    0.0                 !
 ! D22   D(4,5,6,12)           180.0104         -DE/DX =    0.0                 !
 ! D23   D(10,5,6,1)          -179.9998         -DE/DX =    0.0                 !
 ! D24   D(10,5,6,12)            0.0125         -DE/DX =    0.0                 !
 --------------------------------------------------------------------------------
 GradGradGradGradGradGradGradGradGradGradGradGradGradGradGradGradGradGrad

 Leave Link  103 at Fri Aug 27 21:11:45 2021, MaxMem= 17179869184 cpu:        79.9
 (Enter /public3/home/sc51754/softwares/g09e01/l9999.exe)
 1\1\GINC-T1507\Freq\RPBEPBE\Gen\C5H5N1O1\SC51754\27-Aug-2021\0\\#P Geo
 m=AllCheck Guess=TCheck SCRF=Check GenChk RPBEPBE/ChkBas Freq\\4PY_PBE
 PBE_PC2_OPT_FREQ\\0,1\C,-0.0001757469,-1.0506348274,1.1931803503\C,-0.
 0001183858,0.3086118552,1.2263289265\C,0.0000176847,1.1128751785,0.\C,
 -0.0001183858,0.3086118552,-1.2263289265\C,-0.0001757469,-1.0506348274
 ,-1.1931803503\N,-0.0002230775,-1.7298582929,0.\H,-0.0002232524,-1.671
 7387504,2.0884339568\H,-0.0001324932,0.8301980216,2.1822503935\H,-0.00
 01324932,0.8301980216,-2.1822503935\H,-0.0002232524,-1.6717387504,-2.0
 884339568\O,-0.0000929669,2.3530564327,0.\H,-0.0001058836,-2.742025916
 3,0.\\Version=EM64L-G09RevE.01\State=1-A'\HF=-323.2581983\RMSD=1.982e-
 09\RMSF=2.053e-05\ZeroPoint=0.0906035\Thermal=0.0961882\Dipole=0.00001
 9,-2.7132198,0.\DipoleDeriv=-0.0806529,0.0000844,-0.0000087,0.0000685,
 0.6114594,0.2140785,0.0000124,0.3424019,0.3551251,-0.1707862,-0.000023
 7,0.000014,-0.0000289,-0.4805468,0.0618527,0.0000133,0.4483846,-0.1155
 668,0.1894409,0.0000586,0.,0.0000911,1.6635145,0.,0.,0.,0.4680997,-0.1
 707862,-0.0000237,-0.000014,-0.0000289,-0.4805468,-0.0618527,-0.000013
 3,-0.4483846,-0.1155668,-0.0806529,0.0000844,0.0000087,0.0000685,0.611
 4594,-0.2140786,-0.0000124,-0.3424019,0.3551251,-0.1544984,-0.000242,0
 .,-0.0000801,-0.7948855,0.,0.,0.,-0.5906415,0.1467945,-0.0000334,0.000
 0038,-0.0000031,0.0045237,0.0767879,0.0000094,0.0649207,-0.0086861,0.1
 383751,-0.0000127,0.0000089,-0.0000039,0.0509563,-0.0421539,0.0000024,
 -0.0247792,-0.0226456,0.1383751,-0.0000127,-0.0000089,-0.0000039,0.050
 9563,0.0421539,-0.0000024,0.0247792,-0.0226456,0.1467945,-0.0000334,-0
 .0000038,-0.0000031,0.0045236,-0.0767878,-0.0000094,-0.0649207,-0.0086
 861,-0.3921357,0.0000458,0.,-0.0000847,-1.4983552,0.,0.,0.,-0.4238733,
 0.2897323,0.0001083,0.,0.0000086,0.2569412,0.,0.,0.,0.1299618\Polar=38
 .8168569,0.001993,94.2493802,0.,0.,74.1203984\PG=CS [SG(C1H1N1O1),X(C4
 H4)]\NImag=0\\0.11933195,0.00003048,0.77130102,-0.00000770,-0.04914946
 ,0.65529494,-0.04807575,-0.00001750,0.00000421,0.09886170,-0.00001853,
 -0.42389657,0.01201858,0.00002801,0.73539358,0.00000162,-0.01491328,-0
 .11964889,-0.00001786,0.07824034,0.60438710,-0.00035585,0.00000161,-0.
 00000073,-0.06782237,-0.00000942,0.00001239,0.17974637,-0.00000401,-0.
 02813227,0.02573146,-0.00000781,-0.10494823,0.03650467,-0.00001890,0.8
 1399237,0.00000040,0.03715108,0.03650785,0.00001433,0.02256531,-0.1955
 2220,0.,0.,0.49331823,-0.00089920,-0.00000122,-0.00000088,0.00684579,0
 .00000064,0.00000182,-0.06782237,-0.00000781,-0.00001433,0.09886170,0.
 00000078,-0.01110496,-0.01913605,0.00000064,0.02825851,0.00604694,-0.0
 0000942,-0.10494823,-0.02256531,0.00002801,0.73539358,0.00000079,0.002
 55930,-0.00270171,-0.00000182,-0.00604694,-0.03069643,-0.00001239,-0.0
 3650467,-0.19552220,0.00001786,-0.07824034,0.60438710,0.00544023,-0.00
 000029,-0.00000129,-0.00089920,0.00000078,-0.00000079,-0.00035585,-0.0
 0000401,-0.00000040,-0.04807575,-0.00001853,-0.00000162,0.11933195,-0.
 00000029,0.02034988,0.00735210,-0.00000122,-0.01110496,-0.00255930,0.0
 0000161,-0.02813227,-0.03715108,-0.00001750,-0.42389657,0.01491328,0.0
 0003048,0.77130102,0.00000129,-0.00735210,-0.06757722,0.00000088,0.019
 13605,-0.00270171,0.00000073,-0.02573146,0.03650785,-0.00000421,-0.012
 01858,-0.11964889,0.00000770,0.04914946,0.65529494,-0.04228365,0.00000
 190,-0.00000241,0.00908217,-0.00000282,0.00000010,-0.00913379,0.000000
 88,0.,0.00908217,-0.00000282,-0.00000010,-0.04228365,0.00000190,0.0000
 0241,0.06093419,-0.00000375,-0.16764812,-0.09116749,-0.00000227,-0.038
 62902,-0.03854564,-0.00000077,0.00762992,0.,-0.00000227,-0.03862902,0.
 03854564,-0.00000375,-0.16764811,0.09116749,-0.00004187,0.83648919,-0.
 00000983,-0.06279125,-0.26129257,-0.00000192,-0.04718362,0.00425531,0.
 ,0.,-0.04607376,0.00000192,0.04718362,0.00425531,0.00000983,0.06279125
 ,-0.26129256,0.,0.,0.65848830,-0.03264293,-0.00000666,0.00001208,0.006
 27432,-0.00000165,0.00000175,0.01040893,-0.00000033,-0.00000107,-0.000
 96948,0.00000045,-0.00000004,0.00336312,-0.00000016,0.00000077,0.00020
 029,0.00000004,-0.00000289,0.02183842,-0.00000702,-0.14567150,0.132636
 61,-0.00000303,-0.01156261,0.02603030,-0.00000003,-0.00208592,-0.00553
 510,0.,0.00059865,0.00024103,-0.00000030,-0.00221546,-0.00188146,0.000
 00034,0.01162631,-0.01924527,0.00000928,0.14904334,0.00001004,0.123605
 25,-0.23342167,-0.00000038,-0.00111045,0.00534258,0.,-0.00162300,0.000
 86283,0.00000005,0.00031524,0.00087114,-0.00000003,-0.00582743,-0.0011
 3740,0.00000119,0.01667445,-0.02586855,-0.00001072,-0.13353314,0.25329
 770,-0.00135186,-0.00000151,-0.00000111,-0.02937303,0.00000083,0.00000
 305,0.00444921,0.00000188,0.00000286,0.00339374,-0.00000056,0.00000063
 ,-0.00014576,-0.00000040,-0.00000016,0.00844237,-0.00000026,0.00000063
 ,-0.00494936,0.00000016,-0.00000001,0.02206199,0.00000032,-0.00956134,
 -0.02701987,-0.00000015,-0.11309709,-0.11431860,-0.00000044,0.01127898
 ,0.01388148,-0.00000028,-0.00185307,0.00276037,-0.00000001,-0.00047065
 ,0.00076662,-0.00000018,-0.00527141,0.00140177,0.00000034,0.00077666,0
 .00010615,0.00000032,0.11727592,-0.00000017,0.00289831,0.00232497,0.00
 000496,-0.11755416,-0.26687104,-0.00000005,-0.01724695,-0.01732256,0.0
 0000069,0.00365008,-0.00369232,0.00000003,0.00155306,-0.00059794,0.000
 00083,0.00145525,0.00331043,-0.00000044,-0.00051564,0.00072842,-0.0000
 0521,0.12542185,0.27896590,-0.00014576,-0.00000040,0.00000016,0.003393
 74,-0.00000056,-0.00000063,0.00444921,0.00000188,-0.00000286,-0.029373
 03,0.00000083,-0.00000305,-0.00135186,-0.00000151,0.00000111,0.0084423
 7,-0.00000026,-0.00000063,-0.00070195,0.00000009,-0.00000003,-0.001036
 62,0.00000022,-0.00000017,0.02206199,-0.00000001,-0.00047065,-0.000766
 62,-0.00000028,-0.00185307,-0.00276037,-0.00000044,0.01127898,-0.01388
 148,-0.00000015,-0.11309709,0.11431860,0.00000032,-0.00956134,0.027019
 87,-0.00000018,-0.00527141,-0.00140177,0.00000005,0.00008123,0.0001050
 1,0.00000022,0.00052554,-0.00082963,0.00000032,0.11727592,-0.00000003,
 -0.00155306,-0.00059794,-0.00000069,-0.00365008,-0.00369232,0.00000005
 ,0.01724695,-0.01732256,-0.00000496,0.11755416,-0.26687104,0.00000017,
 -0.00289831,0.00232497,-0.00000083,-0.00145525,0.00331043,0.00000010,0
 .00009804,0.00002131,0.00000017,0.00082963,-0.00105506,0.00000521,-0.1
 2542185,0.27896590,0.00336312,-0.00000016,-0.00000077,-0.00096948,0.00
 000045,0.00000004,0.01040893,-0.00000033,0.00000107,0.00627432,-0.0000
 0165,-0.00000175,-0.03264293,-0.00000666,-0.00001208,0.00020029,0.0000
 0004,0.00000289,0.00109036,-0.00000006,0.,-0.00070195,0.00000005,-0.00
 000010,-0.00494936,0.00000034,0.00000044,0.02183842,-0.00000030,-0.002
 21546,0.00188146,0.,0.00059865,-0.00024103,-0.00000003,-0.00208592,0.0
 0553510,-0.00000303,-0.01156261,-0.02603030,-0.00000702,-0.14567150,-0
 .13263661,0.00000034,0.01162631,0.01924527,-0.00000006,0.00053057,0.00
 066647,0.00000009,0.00008123,-0.00009804,0.00000016,0.00077666,0.00051
 564,0.00000928,0.14904334,0.00000003,0.00582743,-0.00113740,-0.0000000
 5,-0.00031524,0.00087114,0.,0.00162300,0.00086283,0.00000038,0.0011104
 5,0.00534258,-0.00001004,-0.12360525,-0.23342167,-0.00000119,-0.016674
 45,-0.02586855,0.,-0.00066647,-0.00108801,0.00000003,-0.00010501,0.000
 02131,0.00000001,-0.00010615,0.00072842,0.00001072,0.13353314,0.253297
 70,0.00375758,-0.00000083,0.00000069,0.01960825,0.00000099,-0.00000025
 ,-0.06333821,0.00003878,0.,0.01960825,0.00000099,0.00000025,0.00375758
 ,-0.00000083,-0.00000069,0.00011859,0.00000027,0.,-0.00222862,0.000000
 23,-0.00000005,-0.00255975,0.00000023,-0.00000044,-0.00255975,0.000000
 23,0.00000044,-0.00222862,0.00000023,0.00000005,0.02645107,0.00000100,
 0.00930475,0.00638977,0.00000297,-0.06170836,0.02996403,0.00003575,-0.
 57340573,0.,0.00000297,-0.06170837,-0.02996403,0.00000100,0.00930475,-
 0.00638977,-0.00000131,-0.00734054,0.,-0.00000091,-0.00230113,0.000353
 29,-0.00000052,0.00076427,0.00084900,-0.00000052,0.00076427,-0.0008490
 0,-0.00000091,-0.00230113,-0.00035329,-0.00004020,0.68746982,0.0000003
 2,-0.00390511,-0.01291904,-0.00000167,0.04508134,0.01013222,0.,0.,-0.0
 9466198,0.00000167,-0.04508134,0.01013222,-0.00000032,0.00390511,-0.01
 291904,0.,0.,0.01188807,0.00000051,0.00200220,0.00008986,-0.00000038,-
 0.00240646,0.00391706,0.00000038,0.00240646,0.00391706,-0.00000051,-0.
 00200220,0.00008986,0.,0.,0.07964598,-0.00613787,-0.00000541,-0.000002
 25,0.00307387,0.00000127,-0.00000125,-0.00063421,-0.00000022,0.,0.0030
 7387,0.00000127,0.00000125,-0.00613787,-0.00000541,0.00000225,-0.00280
 134,0.00005485,0.,-0.00168310,0.00000033,-0.00000005,0.00177102,-0.000
 00043,0.00000008,0.00177102,-0.00000043,-0.00000008,-0.00168310,0.0000
 0033,0.00000005,-0.00038636,0.00000067,0.,0.00977409,0.00000134,-0.012
 25479,0.00122952,0.00000063,0.00254915,-0.00344809,0.00000049,-0.00044
 169,0.,0.00000063,0.00254915,0.00344809,0.00000134,-0.01225479,-0.0012
 2952,0.00004382,-0.43693413,0.,-0.00000039,0.00117985,0.00026816,-0.00
 000025,-0.00044905,0.00041684,-0.00000025,-0.00044905,-0.00041684,-0.0
 0000039,0.00117985,-0.00026816,-0.00000012,0.00115740,0.,-0.00004682,0
 .45416808,0.00000324,-0.03237710,0.00516869,0.00000003,-0.00118113,-0.
 00585576,0.,0.,-0.00163434,-0.00000003,0.00118113,-0.00585576,-0.00000
 324,0.03237710,0.00516869,0.,0.,-0.06511186,-0.00000004,0.00036889,0.0
 0030179,-0.00000049,-0.00131793,0.00027082,0.00000049,0.00131793,0.000
 27082,0.00000004,-0.00036889,0.00030179,0.,0.,0.00068772,0.,0.,0.06628
 739\\0.00000063,-0.00003442,-0.00000621,-0.00001329,0.00002480,-0.0000
 3125,0.00004068,-0.00006142,0.,-0.00001329,0.00002480,0.00003125,0.000
 00063,-0.00003442,0.00000621,-0.00000584,0.00004054,0.,0.00000127,0.00
 000315,-0.00000274,0.00000012,0.00000184,0.00000658,0.00000012,0.00000
 184,-0.00000658,0.00000127,0.00000315,0.00000274,-0.00001484,0.0000402
 7,0.,0.00000253,-0.00001013,0.\\\@


 CHEMISTRY BEGAN BY SAYING IT WOULD CHANGE THE BASER
 METALS INTO GOLD.  BY NOT DOING THAT IT HAS DONE MUCH
 GREATER THINGS.  --  RALPH WALDO EMERSON
 Job cpu time:       0 days  0 hours 37 minutes 28.9 seconds.
 File lengths (MBytes):  RWF=     65 Int=      0 D2E=      0 Chk=      7 Scr=      1
 Normal termination of Gaussian 09 at Fri Aug 27 21:11:45 2021.
