 Entering Gaussian System, Link 0=g09
 AtFile(1): pc-2.gbs
            -H     0
            S    4   1.00
                  0.754230D+02           0.240650D-02
                  0.113500D+02           0.184870D-01
                  0.259930D+01           0.897420D-01
                  0.735130D+00           0.281110D+00
            S    1   1.00
                  0.231670D+00           0.100000D+01
            S    1   1.00
                  0.741470D-01           0.100000D+01
            P    1   1.00
                  0.160000D+01           0.100000D+01
            P    1   1.00
                  0.450000D+00           0.100000D+01
            D    1   1.00
                  0.125000D+01           0.100000D+01
            ****
            -C     0
            S    7   1.00
                  0.785710D+04           0.568250D-03
                  0.117870D+04           0.439150D-02
                  0.268320D+03           0.225040D-01
                  0.759480D+02           0.866530D-01
                  0.245590D+02           0.244050D+00
                  0.862120D+01           0.441480D+00
                  0.312780D+01           0.353320D+00
            S    7   1.00
                  0.117870D+04          -0.594920D-06
                  0.268320D+03          -0.627480D-04
                  0.759480D+02          -0.757730D-03
                  0.245590D+02          -0.733080D-02
                  0.862120D+01          -0.389320D-01
                  0.312780D+01          -0.889080D-01
                  0.822020D+00           0.216890D+00
            S    1   1.00
                  0.330170D+00           0.100000D+01
            S    1   1.00
                  0.114630D+00           0.100000D+01
            P    4   1.00
                  0.337750D+02           0.602940D-02
                  0.767660D+01           0.432280D-01
                  0.223570D+01           0.163010D+00
                  0.764470D+00           0.365040D+00
            P    1   1.00
                  0.262320D+00           0.100000D+01
            P    1   1.00
                  0.846380D-01           0.100000D+01
            D    1   1.00
                  0.140000D+01           0.100000D+01
            D    1   1.00
                  0.450000D+00           0.100000D+01
            F    1   1.00
                  0.950000D+00           0.100000D+01
            ****
            -N     0
            S    7   1.00
                  0.111010D+05           0.545700D-03
                  0.166530D+04           0.421810D-02
                  0.379080D+03           0.216450D-01
                  0.107300D+03           0.837760D-01
                  0.347470D+02           0.238810D+00
                  0.122490D+02           0.439940D+00
                  0.447430D+01           0.363640D+00
            S    7   1.00
                  0.166530D+04          -0.150060D-05
                  0.379080D+03          -0.587530D-04
                  0.107300D+03          -0.774530D-03
                  0.347470D+02          -0.721610D-02
                  0.122490D+02          -0.393380D-01
                  0.447430D+01          -0.906110D-01
                  0.124040D+01           0.198820D+00
            S    1   1.00
                  0.487430D+00           0.100000D+01
            S    1   1.00
                  0.164840D+00           0.100000D+01
            P    4   1.00
                  0.479340D+02           0.617060D-02
                  0.109990D+02           0.442600D-01
                  0.324720D+01           0.168250D+00
                  0.111140D+01           0.368480D+00
            P    1   1.00
                  0.379880D+00           0.100000D+01
            P    1   1.00
                  0.120680D+00           0.100000D+01
            D    1   1.00
                  0.180000D+01           0.100000D+01
            D    1   1.00
                  0.550000D+00           0.100000D+01
            F    1   1.00
                  0.102000D+01           0.100000D+01
            ****
            -O     0
            S    7   1.00
                  0.147820D+05           0.535190D-03
                  0.221730D+04           0.413750D-02
                  0.504740D+03           0.212450D-01
                  0.142870D+03           0.824530D-01
                  0.463000D+02           0.236710D+00
                  0.163370D+02           0.440390D+00
                  0.598280D+01           0.364650D+00
            S    7   1.00
                  0.221730D+04          -0.192750D-05
                  0.504740D+03          -0.579640D-04
                  0.142870D+03          -0.794940D-03
                  0.463000D+02          -0.731250D-02
                  0.163370D+02          -0.405740D-01
                  0.598280D+01          -0.915940D-01
                  0.167180D+01           0.209400D+00
            S    1   1.00
                  0.646620D+00           0.100000D+01
            S    1   1.00
                  0.216690D+00           0.100000D+01
            P    4   1.00
                  0.604240D+02           0.689490D-02
                  0.139350D+02           0.490050D-01
                  0.415310D+01           0.182550D+00
                  0.141580D+01           0.376330D+00
            P    1   1.00
                  0.475490D+00           0.100000D+01
            P    1   1.00
                  0.145290D+00           0.100000D+01
            D    1   1.00
                  0.220000D+01           0.100000D+01
            D    1   1.00
                  0.650000D+00           0.100000D+01
            F    1   1.00
                  0.110000D+01           0.100000D+01
            ****
 Initial command:
 /public3/home/sc51754/softwares/g09e01/l1.exe "./Gau-51319.inp" -scrdir="./"
 Entering Link 1 = /public3/home/sc51754/softwares/g09e01/l1.exe PID=     51320.
  
 Copyright (c) 1988,1990,1992,1993,1995,1998,2003,2009,2015,
            Gaussian, Inc.  All Rights Reserved.
  
 This is part of the Gaussian(R) 09 program.  It is based on
 the Gaussian(R) 03 system (copyright 2003, Gaussian, Inc.),
 the Gaussian(R) 98 system (copyright 1998, Gaussian, Inc.),
 the Gaussian(R) 94 system (copyright 1995, Gaussian, Inc.),
 the Gaussian 92(TM) system (copyright 1992, Gaussian, Inc.),
 the Gaussian 90(TM) system (copyright 1990, Gaussian, Inc.),
 the Gaussian 88(TM) system (copyright 1988, Gaussian, Inc.),
 the Gaussian 86(TM) system (copyright 1986, Carnegie Mellon
 University), and the Gaussian 82(TM) system (copyright 1983,
 Carnegie Mellon University). Gaussian is a federally registered
 trademark of Gaussian, Inc.
  
 This software contains proprietary and confidential information,
 including trade secrets, belonging to Gaussian, Inc.
  
 This software is provided under written license and may be
 used, copied, transmitted, or stored only in accord with that
 written license.
  
 The following legend is applicable only to US Government
 contracts under FAR:
  
                    RESTRICTED RIGHTS LEGEND
  
 Use, reproduction and disclosure by the US Government is
 subject to restrictions as set forth in subparagraphs (a)
 and (c) of the Commercial Computer Software - Restricted
 Rights clause in FAR 52.227-19.
  
 Gaussian, Inc.
 340 Quinnipiac St., Bldg. 40, Wallingford CT 06492
  
  
 ---------------------------------------------------------------
 Warning -- This program may not be used in any manner that
 competes with the business of Gaussian, Inc. or will provide
 assistance to any competitor of Gaussian, Inc.  The licensee
 of this program is prohibited from giving any competitor of
 Gaussian, Inc. access to this program.  By using this program,
 the user acknowledges that Gaussian, Inc. is engaged in the
 business of creating and licensing software in the field of
 computational chemistry and represents and warrants to the
 licensee that it is not a competitor of Gaussian, Inc. and that
 it will not use this program in any manner prohibited above.
 ---------------------------------------------------------------
  

 Cite this work as:
 Gaussian 09, Revision E.01,
 M. J. Frisch, G. W. Trucks, H. B. Schlegel, G. E. Scuseria, 
 M. A. Robb, J. R. Cheeseman, G. Scalmani, V. Barone, B. Mennucci, 
 G. A. Petersson, H. Nakatsuji, M. Caricato, X. Li, H. P. Hratchian, 
 A. F. Izmaylov, J. Bloino, G. Zheng, J. L. Sonnenberg, M. Hada, 
 M. Ehara, K. Toyota, R. Fukuda, J. Hasegawa, M. Ishida, T. Nakajima, 
 Y. Honda, O. Kitao, H. Nakai, T. Vreven, J. A. Montgomery, Jr., 
 J. E. Peralta, F. Ogliaro, M. Bearpark, J. J. Heyd, E. Brothers, 
 K. N. Kudin, V. N. Staroverov, T. Keith, R. Kobayashi, J. Normand, 
 K. Raghavachari, A. Rendell, J. C. Burant, S. S. Iyengar, J. Tomasi, 
 M. Cossi, N. Rega, J. M. Millam, M. Klene, J. E. Knox, J. B. Cross, 
 V. Bakken, C. Adamo, J. Jaramillo, R. Gomperts, R. E. Stratmann, 
 O. Yazyev, A. J. Austin, R. Cammi, C. Pomelli, J. W. Ochterski, 
 R. L. Martin, K. Morokuma, V. G. Zakrzewski, G. A. Voth, 
 P. Salvador, J. J. Dannenberg, S. Dapprich, A. D. Daniels, 
 O. Farkas, J. B. Foresman, J. V. Ortiz, J. Cioslowski, 
 and D. J. Fox, Gaussian, Inc., Wallingford CT, 2013.
 
 ******************************************
 Gaussian 09:  EM64L-G09RevE.01 30-Nov-2015
                27-Aug-2021 
 ******************************************
 %nprocshared=64
 Will use up to   64 processors via shared memory.
 %mem=128GB
 %chk=4PY_CAM-B3LYP_PC2_OPT_FREQ.chk
 -------------------------
 #p opt freq CAM-B3LYP/gen
 -------------------------
 1/14=-1,18=20,19=15,26=3,38=1/1,3;
 2/9=110,12=2,17=6,18=5,40=1/2;
 3/5=7,11=2,16=1,25=1,30=1,71=1,74=-40/1,2,3;
 4//1;
 5/5=2,38=5/2;
 6/7=2,8=2,9=2,10=2,28=1/1;
 7//1,2,3,16;
 1/14=-1,18=20,19=15,26=3/3(2);
 2/9=110/2;
 99//99;
 2/9=110/2;
 3/5=7,6=1,11=2,16=1,25=1,30=1,71=1,74=-40,82=7/1,2,3;
 4/5=5,16=3,69=1/1;
 5/5=2,38=5/2;
 7//1,2,3,16;
 1/14=-1,18=20,19=15,26=3/3(-5);
 2/9=110/2;
 6/7=2,8=2,9=2,10=2,19=2,28=1/1;
 99/9=1/99;
 Leave Link    1 at Fri Aug 27 21:21:35 2021, MaxMem= 17179869184 cpu:         2.4
 (Enter /public3/home/sc51754/softwares/g09e01/l101.exe)
 --------------------------
 4PY_CAM-B3LYP_PC2_OPT_FREQ
 --------------------------
 Symbolic Z-matrix:
 Charge =  0 Multiplicity = 1
 C                    -0.00018  -1.04887   1.19382 
 C                    -0.00018   0.30655   1.22857 
 C                     0.00022   1.11152   0. 
 C                    -0.00018   0.30655  -1.22857 
 C                    -0.00018  -1.04887  -1.19382 
 N                     0.00002  -1.72968   0. 
 H                    -0.00063  -1.66693   2.08522 
 H                    -0.00059   0.82774   2.17893 
 H                    -0.00059   0.82774  -2.17893 
 H                    -0.00063  -1.66693  -2.08522 
 O                     0.0006    2.34525   0. 
 H                     0.00063  -2.73716   0. 
 
 NAtoms=     12 NQM=       12 NQMF=       0 NMMI=      0 NMMIF=      0
                NMic=       0 NMicF=      0.
                    Isotopes and Nuclear Properties:
 (Nuclear quadrupole moments (NQMom) in fm**2, nuclear magnetic moments (NMagM)
  in nuclear magnetons)

  Atom         1           2           3           4           5           6           7           8           9          10
 IAtWgt=          12          12          12          12          12          14           1           1           1           1
 AtmWgt=  12.0000000  12.0000000  12.0000000  12.0000000  12.0000000  14.0030740   1.0078250   1.0078250   1.0078250   1.0078250
 NucSpn=           0           0           0           0           0           2           1           1           1           1
 AtZEff=   0.0000000   0.0000000   0.0000000   0.0000000   0.0000000   0.0000000   0.0000000   0.0000000   0.0000000   0.0000000
 NQMom=    0.0000000   0.0000000   0.0000000   0.0000000   0.0000000   2.0440000   0.0000000   0.0000000   0.0000000   0.0000000
 NMagM=    0.0000000   0.0000000   0.0000000   0.0000000   0.0000000   0.4037610   2.7928460   2.7928460   2.7928460   2.7928460
 AtZNuc=   6.0000000   6.0000000   6.0000000   6.0000000   6.0000000   7.0000000   1.0000000   1.0000000   1.0000000   1.0000000

  Atom        11          12
 IAtWgt=          16           1
 AtmWgt=  15.9949146   1.0078250
 NucSpn=           0           1
 AtZEff=   0.0000000   0.0000000
 NQMom=    0.0000000   0.0000000
 NMagM=    0.0000000   2.7928460
 AtZNuc=   8.0000000   1.0000000
 Leave Link  101 at Fri Aug 27 21:21:35 2021, MaxMem= 17179869184 cpu:        11.9
 (Enter /public3/home/sc51754/softwares/g09e01/l103.exe)

 GradGradGradGradGradGradGradGradGradGradGradGradGradGradGradGradGradGrad
 Berny optimization.
 Initialization pass.
                           ----------------------------
                           !    Initial Parameters    !
                           ! (Angstroms and Degrees)  !
 --------------------------                            --------------------------
 ! Name  Definition              Value          Derivative Info.                !
 --------------------------------------------------------------------------------
 ! R1    R(1,2)                  1.3559         estimate D2E/DX2                !
 ! R2    R(1,6)                  1.3743         estimate D2E/DX2                !
 ! R3    R(1,7)                  1.0847         estimate D2E/DX2                !
 ! R4    R(2,3)                  1.4688         estimate D2E/DX2                !
 ! R5    R(2,8)                  1.0839         estimate D2E/DX2                !
 ! R6    R(3,4)                  1.4688         estimate D2E/DX2                !
 ! R7    R(3,11)                 1.2337         estimate D2E/DX2                !
 ! R8    R(4,5)                  1.3559         estimate D2E/DX2                !
 ! R9    R(4,9)                  1.0839         estimate D2E/DX2                !
 ! R10   R(5,6)                  1.3743         estimate D2E/DX2                !
 ! R11   R(5,10)                 1.0847         estimate D2E/DX2                !
 ! R12   R(6,12)                 1.0075         estimate D2E/DX2                !
 ! A1    A(2,1,6)              121.1639         estimate D2E/DX2                !
 ! A2    A(2,1,7)              123.267          estimate D2E/DX2                !
 ! A3    A(6,1,7)              115.5691         estimate D2E/DX2                !
 ! A4    A(1,2,3)              121.7645         estimate D2E/DX2                !
 ! A5    A(1,2,8)              120.2096         estimate D2E/DX2                !
 ! A6    A(3,2,8)              118.0259         estimate D2E/DX2                !
 ! A7    A(2,3,4)              113.5338         estimate D2E/DX2                !
 ! A8    A(2,3,11)             123.2331         estimate D2E/DX2                !
 ! A9    A(4,3,11)             123.2331         estimate D2E/DX2                !
 ! A10   A(3,4,5)              121.7645         estimate D2E/DX2                !
 ! A11   A(3,4,9)              118.0259         estimate D2E/DX2                !
 ! A12   A(5,4,9)              120.2096         estimate D2E/DX2                !
 ! A13   A(4,5,6)              121.1639         estimate D2E/DX2                !
 ! A14   A(4,5,10)             123.267          estimate D2E/DX2                !
 ! A15   A(6,5,10)             115.5691         estimate D2E/DX2                !
 ! A16   A(1,6,5)              120.6094         estimate D2E/DX2                !
 ! A17   A(1,6,12)             119.6953         estimate D2E/DX2                !
 ! A18   A(5,6,12)             119.6953         estimate D2E/DX2                !
 ! D1    D(6,1,2,3)             -0.0087         estimate D2E/DX2                !
 ! D2    D(6,1,2,8)            179.9852         estimate D2E/DX2                !
 ! D3    D(7,1,2,3)           -179.9904         estimate D2E/DX2                !
 ! D4    D(7,1,2,8)              0.0035         estimate D2E/DX2                !
 ! D5    D(2,1,6,5)             -0.0199         estimate D2E/DX2                !
 ! D6    D(2,1,6,12)           179.9596         estimate D2E/DX2                !
 ! D7    D(7,1,6,5)            179.9631         estimate D2E/DX2                !
 ! D8    D(7,1,6,12)            -0.0574         estimate D2E/DX2                !
 ! D9    D(1,2,3,4)              0.0339         estimate D2E/DX2                !
 ! D10   D(1,2,3,11)          -179.9797         estimate D2E/DX2                !
 ! D11   D(8,2,3,4)           -179.9602         estimate D2E/DX2                !
 ! D12   D(8,2,3,11)             0.0262         estimate D2E/DX2                !
 ! D13   D(2,3,4,5)             -0.0339         estimate D2E/DX2                !
 ! D14   D(2,3,4,9)            179.9602         estimate D2E/DX2                !
 ! D15   D(11,3,4,5)           179.9797         estimate D2E/DX2                !
 ! D16   D(11,3,4,9)            -0.0262         estimate D2E/DX2                !
 ! D17   D(3,4,5,6)              0.0087         estimate D2E/DX2                !
 ! D18   D(3,4,5,10)           179.9904         estimate D2E/DX2                !
 ! D19   D(9,4,5,6)           -179.9852         estimate D2E/DX2                !
 ! D20   D(9,4,5,10)            -0.0035         estimate D2E/DX2                !
 ! D21   D(4,5,6,1)              0.0199         estimate D2E/DX2                !
 ! D22   D(4,5,6,12)          -179.9596         estimate D2E/DX2                !
 ! D23   D(10,5,6,1)          -179.9631         estimate D2E/DX2                !
 ! D24   D(10,5,6,12)            0.0574         estimate D2E/DX2                !
 --------------------------------------------------------------------------------
 Trust Radius=3.00D-01 FncErr=1.00D-07 GrdErr=1.00D-06
 Number of steps in this run=     64 maximum allowed number of steps=    100.
 GradGradGradGradGradGradGradGradGradGradGradGradGradGradGradGradGradGrad

 Leave Link  103 at Fri Aug 27 21:21:35 2021, MaxMem= 17179869184 cpu:         0.2
 (Enter /public3/home/sc51754/softwares/g09e01/l202.exe)
                          Input orientation:                          
 ---------------------------------------------------------------------
 Center     Atomic      Atomic             Coordinates (Angstroms)
 Number     Number       Type             X           Y           Z
 ---------------------------------------------------------------------
      1          6           0       -0.000184   -1.048866    1.193818
      2          6           0       -0.000184    0.306549    1.228568
      3          6           0        0.000221    1.111516    0.000000
      4          6           0       -0.000184    0.306549   -1.228568
      5          6           0       -0.000184   -1.048866   -1.193818
      6          7           0        0.000018   -1.729678    0.000000
      7          1           0       -0.000630   -1.666925    2.085223
      8          1           0       -0.000587    0.827738    2.178925
      9          1           0       -0.000587    0.827738   -2.178925
     10          1           0       -0.000630   -1.666925   -2.085223
     11          8           0        0.000597    2.345248    0.000000
     12          1           0        0.000630   -2.737158    0.000000
 ---------------------------------------------------------------------
                    Distance matrix (angstroms):
                    1          2          3          4          5
     1  C    0.000000
     2  C    1.355860   0.000000
     3  C    2.468289   1.468792   0.000000
     4  C    2.775807   2.457136   1.468792   0.000000
     5  C    2.387636   2.775807   2.468289   1.355860   0.000000
     6  N    1.374302   2.378150   2.841194   2.378150   1.374302
     7  H    1.084712   2.151385   3.473887   3.856917   3.336781
     8  H    2.119452   1.083890   2.197327   3.447122   3.859668
     9  H    3.859668   3.447122   2.197327   1.083890   2.119452
    10  H    3.336781   3.856917   3.473887   2.151385   1.084712
    11  O    3.597946   2.380268   1.233732   2.380268   3.597946
    12  H    2.067736   3.282306   3.848674   3.282306   2.067736
                    6          7          8          9         10
     6  N    0.000000
     7  H    2.086167   0.000000
     8  H    3.359775   2.496422   0.000000
     9  H    3.359775   4.940273   4.357850   0.000000
    10  H    2.086167   4.170446   4.940273   2.496422   0.000000
    11  O    4.074926   4.521691   2.655288   2.655288   4.521691
    12  H    1.007480   2.343833   4.178062   4.178062   2.343833
                   11         12
    11  O    0.000000
    12  H    5.082406   0.000000
 Stoichiometry    C5H5NO
 Framework group  CS[SG(CHNO),X(C4H4)]
 Deg. of freedom    17
 Full point group                 CS      NOp   2
 Largest Abelian subgroup         CS      NOp   2
 Largest concise Abelian subgroup CS      NOp   2
                         Standard orientation:                         
 ---------------------------------------------------------------------
 Center     Atomic      Atomic             Coordinates (Angstroms)
 Number     Number       Type             X           Y           Z
 ---------------------------------------------------------------------
      1          6           0        0.000184    1.048866    1.193818
      2          6           0        0.000184   -0.306549    1.228568
      3          6           0       -0.000221   -1.111516   -0.000000
      4          6           0        0.000184   -0.306549   -1.228568
      5          6           0        0.000184    1.048866   -1.193818
      6          7           0       -0.000018    1.729678    0.000000
      7          1           0        0.000630    1.666925    2.085223
      8          1           0        0.000587   -0.827738    2.178925
      9          1           0        0.000587   -0.827738   -2.178925
     10          1           0        0.000630    1.666925   -2.085223
     11          8           0       -0.000597   -2.345248   -0.000000
     12          1           0       -0.000630    2.737158    0.000000
 ---------------------------------------------------------------------
 Rotational constants (GHZ):      5.6935111      2.6926956      1.8281082
 Leave Link  202 at Fri Aug 27 21:21:35 2021, MaxMem= 17179869184 cpu:         2.9
 (Enter /public3/home/sc51754/softwares/g09e01/l301.exe)
 General basis read from cards:  (5D, 7F)
 Centers:       7      8      9     10     12
 S 4 1.00
     Exponent=  7.5423000000D+01 Coefficients=  2.4065000000D-03
     Exponent=  1.1350000000D+01 Coefficients=  1.8487000000D-02
     Exponent=  2.5993000000D+00 Coefficients=  8.9742000000D-02
     Exponent=  7.3513000000D-01 Coefficients=  2.8111000000D-01
 S 1 1.00
     Exponent=  2.3167000000D-01 Coefficients=  1.0000000000D+00
 S 1 1.00
     Exponent=  7.4147000000D-02 Coefficients=  1.0000000000D+00
 P 1 1.00
     Exponent=  1.6000000000D+00 Coefficients=  1.0000000000D+00
 P 1 1.00
     Exponent=  4.5000000000D-01 Coefficients=  1.0000000000D+00
 D 1 1.00
     Exponent=  1.2500000000D+00 Coefficients=  1.0000000000D+00
 ****
 Centers:       1      2      3      4      5
 S 7 1.00
     Exponent=  7.8571000000D+03 Coefficients=  5.6825000000D-04
     Exponent=  1.1787000000D+03 Coefficients=  4.3915000000D-03
     Exponent=  2.6832000000D+02 Coefficients=  2.2504000000D-02
     Exponent=  7.5948000000D+01 Coefficients=  8.6653000000D-02
     Exponent=  2.4559000000D+01 Coefficients=  2.4405000000D-01
     Exponent=  8.6212000000D+00 Coefficients=  4.4148000000D-01
     Exponent=  3.1278000000D+00 Coefficients=  3.5332000000D-01
 S 7 1.00
     Exponent=  1.1787000000D+03 Coefficients= -5.9492000000D-07
     Exponent=  2.6832000000D+02 Coefficients= -6.2748000000D-05
     Exponent=  7.5948000000D+01 Coefficients= -7.5773000000D-04
     Exponent=  2.4559000000D+01 Coefficients= -7.3308000000D-03
     Exponent=  8.6212000000D+00 Coefficients= -3.8932000000D-02
     Exponent=  3.1278000000D+00 Coefficients= -8.8908000000D-02
     Exponent=  8.2202000000D-01 Coefficients=  2.1689000000D-01
 S 1 1.00
     Exponent=  3.3017000000D-01 Coefficients=  1.0000000000D+00
 S 1 1.00
     Exponent=  1.1463000000D-01 Coefficients=  1.0000000000D+00
 P 4 1.00
     Exponent=  3.3775000000D+01 Coefficients=  6.0294000000D-03
     Exponent=  7.6766000000D+00 Coefficients=  4.3228000000D-02
     Exponent=  2.2357000000D+00 Coefficients=  1.6301000000D-01
     Exponent=  7.6447000000D-01 Coefficients=  3.6504000000D-01
 P 1 1.00
     Exponent=  2.6232000000D-01 Coefficients=  1.0000000000D+00
 P 1 1.00
     Exponent=  8.4638000000D-02 Coefficients=  1.0000000000D+00
 D 1 1.00
     Exponent=  1.4000000000D+00 Coefficients=  1.0000000000D+00
 D 1 1.00
     Exponent=  4.5000000000D-01 Coefficients=  1.0000000000D+00
 F 1 1.00
     Exponent=  9.5000000000D-01 Coefficients=  1.0000000000D+00
 ****
 Centers:       6
 S 7 1.00
     Exponent=  1.1101000000D+04 Coefficients=  5.4570000000D-04
     Exponent=  1.6653000000D+03 Coefficients=  4.2181000000D-03
     Exponent=  3.7908000000D+02 Coefficients=  2.1645000000D-02
     Exponent=  1.0730000000D+02 Coefficients=  8.3776000000D-02
     Exponent=  3.4747000000D+01 Coefficients=  2.3881000000D-01
     Exponent=  1.2249000000D+01 Coefficients=  4.3994000000D-01
     Exponent=  4.4743000000D+00 Coefficients=  3.6364000000D-01
 S 7 1.00
     Exponent=  1.6653000000D+03 Coefficients= -1.5006000000D-06
     Exponent=  3.7908000000D+02 Coefficients= -5.8753000000D-05
     Exponent=  1.0730000000D+02 Coefficients= -7.7453000000D-04
     Exponent=  3.4747000000D+01 Coefficients= -7.2161000000D-03
     Exponent=  1.2249000000D+01 Coefficients= -3.9338000000D-02
     Exponent=  4.4743000000D+00 Coefficients= -9.0611000000D-02
     Exponent=  1.2404000000D+00 Coefficients=  1.9882000000D-01
 S 1 1.00
     Exponent=  4.8743000000D-01 Coefficients=  1.0000000000D+00
 S 1 1.00
     Exponent=  1.6484000000D-01 Coefficients=  1.0000000000D+00
 P 4 1.00
     Exponent=  4.7934000000D+01 Coefficients=  6.1706000000D-03
     Exponent=  1.0999000000D+01 Coefficients=  4.4260000000D-02
     Exponent=  3.2472000000D+00 Coefficients=  1.6825000000D-01
     Exponent=  1.1114000000D+00 Coefficients=  3.6848000000D-01
 P 1 1.00
     Exponent=  3.7988000000D-01 Coefficients=  1.0000000000D+00
 P 1 1.00
     Exponent=  1.2068000000D-01 Coefficients=  1.0000000000D+00
 D 1 1.00
     Exponent=  1.8000000000D+00 Coefficients=  1.0000000000D+00
 D 1 1.00
     Exponent=  5.5000000000D-01 Coefficients=  1.0000000000D+00
 F 1 1.00
     Exponent=  1.0200000000D+00 Coefficients=  1.0000000000D+00
 ****
 Centers:      11
 S 7 1.00
     Exponent=  1.4782000000D+04 Coefficients=  5.3519000000D-04
     Exponent=  2.2173000000D+03 Coefficients=  4.1375000000D-03
     Exponent=  5.0474000000D+02 Coefficients=  2.1245000000D-02
     Exponent=  1.4287000000D+02 Coefficients=  8.2453000000D-02
     Exponent=  4.6300000000D+01 Coefficients=  2.3671000000D-01
     Exponent=  1.6337000000D+01 Coefficients=  4.4039000000D-01
     Exponent=  5.9828000000D+00 Coefficients=  3.6465000000D-01
 S 7 1.00
     Exponent=  2.2173000000D+03 Coefficients= -1.9275000000D-06
     Exponent=  5.0474000000D+02 Coefficients= -5.7964000000D-05
     Exponent=  1.4287000000D+02 Coefficients= -7.9494000000D-04
     Exponent=  4.6300000000D+01 Coefficients= -7.3125000000D-03
     Exponent=  1.6337000000D+01 Coefficients= -4.0574000000D-02
     Exponent=  5.9828000000D+00 Coefficients= -9.1594000000D-02
     Exponent=  1.6718000000D+00 Coefficients=  2.0940000000D-01
 S 1 1.00
     Exponent=  6.4662000000D-01 Coefficients=  1.0000000000D+00
 S 1 1.00
     Exponent=  2.1669000000D-01 Coefficients=  1.0000000000D+00
 P 4 1.00
     Exponent=  6.0424000000D+01 Coefficients=  6.8949000000D-03
     Exponent=  1.3935000000D+01 Coefficients=  4.9005000000D-02
     Exponent=  4.1531000000D+00 Coefficients=  1.8255000000D-01
     Exponent=  1.4158000000D+00 Coefficients=  3.7633000000D-01
 P 1 1.00
     Exponent=  4.7549000000D-01 Coefficients=  1.0000000000D+00
 P 1 1.00
     Exponent=  1.4529000000D-01 Coefficients=  1.0000000000D+00
 D 1 1.00
     Exponent=  2.2000000000D+00 Coefficients=  1.0000000000D+00
 D 1 1.00
     Exponent=  6.5000000000D-01 Coefficients=  1.0000000000D+00
 F 1 1.00
     Exponent=  1.1000000000D+00 Coefficients=  1.0000000000D+00
 ****
 Ernie: Thresh=  0.10000D-02 Tol=  0.10000D-05 Strict=F.
 Ernie:  7 primitive shells out of 220 were deleted.
 There are   183 symmetry adapted cartesian basis functions of A'  symmetry.
 There are   137 symmetry adapted cartesian basis functions of A"  symmetry.
 There are   158 symmetry adapted basis functions of A'  symmetry.
 There are   122 symmetry adapted basis functions of A"  symmetry.
   280 basis functions,   475 primitive gaussians,   320 cartesian basis functions
    25 alpha electrons       25 beta electrons
       nuclear repulsion energy       273.2804388411 Hartrees.
 IExCor=20419 DFT=T Ex+Corr=CAM-B3LYP ExCW=0 ScaHFX=  1.000000
 ScaDFX=  1.000000  1.000000  1.000000  0.810000 ScalE2=  1.000000  1.000000
 IRadAn=      0 IRanWt=     -1 IRanGd=            0 ICorTp=0 IEmpDi=  4
  HFx wShort=  0.000000 wLong=  0.330000 cFull=  0.190000 cShort=  0.000000 cLong=  0.460000
  DFx wShort=  0.000000 wLong=  0.330000 cFull=  0.190000 cShort=  0.000000 cLong=  0.460000
 NAtoms=   12 NActive=   12 NUniq=    8 SFac= 2.25D+00 NAtFMM=   60 NAOKFM=F Big=F
 Integral buffers will be    131072 words long.
 Raffenetti 2 integral format.
 Two-electron integral symmetry is turned on.
 Leave Link  301 at Fri Aug 27 21:21:35 2021, MaxMem= 17179869184 cpu:         1.7
 (Enter /public3/home/sc51754/softwares/g09e01/l302.exe)
 NPDir=0 NMtPBC=     1 NCelOv=     1 NCel=       1 NClECP=     1 NCelD=      1
         NCelK=      1 NCelE2=     1 NClLst=     1 CellRange=     0.0.
 One-electron integrals computed using PRISM.
 One-electron integral symmetry used in STVInt
 NBasis=   280 RedAO= T EigKep=  1.83D-04  NBF=   158   122
 NBsUse=   280 1.00D-06 EigRej= -1.00D+00 NBFU=   158   122
 Precomputing XC quadrature grid using
 IXCGrd= 4 IRadAn=           0 IRanWt=          -1 IRanGd=           0 AccXCQ= 0.00D+00.
 Generated NRdTot=       0 NPtTot=           0 NUsed=           0 NTot=          32
 NSgBfM=   320   320   320   320   320 MxSgAt=    12 MxSgA2=    12.
 Leave Link  302 at Fri Aug 27 21:21:36 2021, MaxMem= 17179869184 cpu:        39.3
 (Enter /public3/home/sc51754/softwares/g09e01/l303.exe)
 DipDrv:  MaxL=1.
 Leave Link  303 at Fri Aug 27 21:21:37 2021, MaxMem= 17179869184 cpu:        13.1
 (Enter /public3/home/sc51754/softwares/g09e01/l401.exe)
 ExpMin= 7.41D-02 ExpMax= 1.48D+04 ExpMxC= 5.05D+02 IAcc=2 IRadAn=         4 AccDes= 0.00D+00
 Harris functional with IExCor=20419 and IRadAn=       4 diagonalized for initial guess.
 HarFok:  IExCor=20419 AccDes= 0.00D+00 IRadAn=         4 IDoV= 1 UseB2=F ITyADJ=14
 ICtDFT=  3500011 ScaDFX=  1.000000  1.000000  1.000000  1.000000
 FoFCou: FMM=F IPFlag=           0 FMFlag=      100000 FMFlg1=           0
         NFxFlg=           0 DoJE=T BraDBF=F KetDBF=T FulRan=T
         wScrn=  0.000000 ICntrl=     500 IOpCl=  0 I1Cent=   200000004 NGrid=           0
         NMat0=    1 NMatS0=      1 NMatT0=    0 NMatD0=    1 NMtDS0=    0 NMtDT0=    0
 Petite list used in FoFCou.
 Harris En= -311.351637308614    
 JPrj=0 DoOrth=F DoCkMO=F.
 Initial guess orbital symmetries:
       Occupied  (A') (A') (A") (A') (A") (A') (A') (A') (A') (A')
                 (A") (A") (A') (A') (A") (A') (A") (A') (A') (A')
                 (A") (A') (A") (A") (A')
       Virtual   (A") (A') (A') (A") (A') (A") (A') (A') (A') (A')
                 (A') (A") (A') (A") (A") (A') (A") (A') (A") (A')
                 (A") (A') (A') (A") (A') (A") (A') (A") (A') (A')
                 (A') (A') (A") (A') (A') (A') (A") (A") (A") (A")
                 (A') (A') (A") (A') (A') (A") (A') (A") (A") (A')
                 (A') (A") (A") (A') (A') (A') (A') (A") (A') (A')
                 (A') (A') (A") (A") (A') (A") (A') (A') (A") (A')
                 (A") (A") (A") (A') (A") (A') (A') (A") (A") (A')
                 (A') (A') (A") (A") (A') (A') (A') (A') (A") (A')
                 (A") (A") (A') (A") (A') (A") (A') (A") (A') (A')
                 (A") (A') (A") (A") (A') (A") (A') (A') (A") (A')
                 (A') (A") (A') (A") (A") (A') (A') (A') (A") (A")
                 (A") (A') (A') (A") (A') (A") (A') (A") (A') (A')
                 (A") (A") (A') (A") (A') (A') (A') (A") (A') (A')
                 (A") (A") (A") (A') (A") (A') (A') (A') (A') (A")
                 (A') (A') (A") (A') (A") (A') (A") (A") (A") (A')
                 (A') (A") (A') (A") (A') (A") (A") (A') (A") (A")
                 (A') (A') (A") (A') (A') (A") (A") (A') (A') (A')
                 (A") (A') (A") (A') (A") (A') (A") (A') (A') (A")
                 (A") (A') (A") (A') (A") (A') (A") (A') (A") (A')
                 (A') (A') (A') (A") (A") (A") (A") (A') (A') (A')
                 (A') (A") (A') (A") (A") (A') (A") (A') (A") (A')
                 (A") (A') (A") (A') (A") (A") (A") (A') (A') (A")
                 (A') (A') (A") (A') (A') (A") (A') (A") (A") (A')
                 (A') (A') (A") (A') (A") (A') (A') (A") (A') (A')
                 (A") (A') (A") (A') (A')
 The electronic state of the initial guess is 1-A'.
 Leave Link  401 at Fri Aug 27 21:21:38 2021, MaxMem= 17179869184 cpu:        46.7
 (Enter /public3/home/sc51754/softwares/g09e01/l502.exe)
 Closed shell SCF:
 Using DIIS extrapolation, IDIIS=  1040.
 Integral symmetry usage will be decided dynamically.
 Keep R1 ints in memory in symmetry-blocked form, NReq=2322273034.
 IVT=      348938 IEndB=      348938 NGot= 17179869184 MDV= 16792355177
 LenX= 16792355177 LenY= 16792252336
 Requested convergence on RMS density matrix=1.00D-08 within 128 cycles.
 Requested convergence on MAX density matrix=1.00D-06.
 Requested convergence on             energy=1.00D-06.
 No special actions if energy rises.
 FoFCou: FMM=F IPFlag=           0 FMFlag=           0 FMFlg1=           0
         NFxFlg=           0 DoJE=F BraDBF=F KetDBF=F FulRan=T
         wScrn=  0.000000 ICntrl=     600 IOpCl=  0 I1Cent=           0 NGrid=           0
         NMat0=    1 NMatS0=  39340 NMatT0=    0 NMatD0=    1 NMtDS0=    0 NMtDT0=    0
 Petite list used in FoFCou.
 Integral accuracy reduced to 1.0D-05 until final iterations.

 Cycle   1  Pass 0  IDiag  1:
 E= -323.387616366338    
 DIIS: error= 5.56D-02 at cycle   1 NSaved=   1.
 NSaved= 1 IEnMin= 1 EnMin= -323.387616366338     IErMin= 1 ErrMin= 5.56D-02
 ErrMax= 5.56D-02  0.00D+00 EMaxC= 1.00D-01 BMatC= 2.30D-01 BMatP= 2.30D-01
 IDIUse=3 WtCom= 4.44D-01 WtEn= 5.56D-01
 Coeff-Com:  0.100D+01
 Coeff-En:   0.100D+01
 Coeff:      0.100D+01
 Gap=     0.236 Goal=   None    Shift=    0.000
 GapD=    0.236 DampG=1.000 DampE=0.500 DampFc=0.5000 IDamp=-1.
 Damping current iteration by 5.00D-01
 RMSDP=2.68D-03 MaxDP=1.22D-01              OVMax= 2.25D-01

 Cycle   2  Pass 0  IDiag  1:
 E= -323.425739976571     Delta-E=       -0.038123610233 Rises=F Damp=T
 DIIS: error= 2.75D-02 at cycle   2 NSaved=   2.
 NSaved= 2 IEnMin= 2 EnMin= -323.425739976571     IErMin= 2 ErrMin= 2.75D-02
 ErrMax= 2.75D-02  0.00D+00 EMaxC= 1.00D-01 BMatC= 4.84D-02 BMatP= 2.30D-01
 IDIUse=3 WtCom= 7.25D-01 WtEn= 2.75D-01
 Coeff-Com: -0.190D+00 0.119D+01
 Coeff-En:   0.118D+00 0.882D+00
 Coeff:     -0.105D+00 0.111D+01
 Gap=     0.303 Goal=   None    Shift=    0.000
 RMSDP=1.23D-03 MaxDP=6.05D-02 DE=-3.81D-02 OVMax= 1.80D-01

 Cycle   3  Pass 0  IDiag  1:
 E= -323.464584337457     Delta-E=       -0.038844360886 Rises=F Damp=F
 DIIS: error= 9.39D-03 at cycle   3 NSaved=   3.
 NSaved= 3 IEnMin= 3 EnMin= -323.464584337457     IErMin= 3 ErrMin= 9.39D-03
 ErrMax= 9.39D-03  0.00D+00 EMaxC= 1.00D-01 BMatC= 2.04D-02 BMatP= 4.84D-02
 IDIUse=3 WtCom= 9.06D-01 WtEn= 9.39D-02
 Coeff-Com: -0.253D+00 0.566D+00 0.687D+00
 Coeff-En:   0.000D+00 0.000D+00 0.100D+01
 Coeff:     -0.229D+00 0.513D+00 0.716D+00
 Gap=     0.299 Goal=   None    Shift=    0.000
 RMSDP=4.14D-04 MaxDP=2.22D-02 DE=-3.88D-02 OVMax= 7.38D-02

 Cycle   4  Pass 0  IDiag  1:
 E= -323.481940811828     Delta-E=       -0.017356474371 Rises=F Damp=F
 DIIS: error= 2.78D-03 at cycle   4 NSaved=   4.
 NSaved= 4 IEnMin= 4 EnMin= -323.481940811828     IErMin= 4 ErrMin= 2.78D-03
 ErrMax= 2.78D-03  0.00D+00 EMaxC= 1.00D-01 BMatC= 1.91D-03 BMatP= 2.04D-02
 IDIUse=3 WtCom= 9.72D-01 WtEn= 2.78D-02
 Coeff-Com: -0.113D+00 0.236D+00 0.389D+00 0.489D+00
 Coeff-En:   0.000D+00 0.000D+00 0.781D-02 0.992D+00
 Coeff:     -0.110D+00 0.229D+00 0.378D+00 0.503D+00
 Gap=     0.302 Goal=   None    Shift=    0.000
 RMSDP=1.54D-04 MaxDP=5.46D-03 DE=-1.74D-02 OVMax= 1.80D-02

 Cycle   5  Pass 0  IDiag  1:
 E= -323.483567293594     Delta-E=       -0.001626481766 Rises=F Damp=F
 DIIS: error= 7.33D-04 at cycle   5 NSaved=   5.
 NSaved= 5 IEnMin= 5 EnMin= -323.483567293594     IErMin= 5 ErrMin= 7.33D-04
 ErrMax= 7.33D-04  0.00D+00 EMaxC= 1.00D-01 BMatC= 8.95D-05 BMatP= 1.91D-03
 IDIUse=3 WtCom= 9.93D-01 WtEn= 7.33D-03
 Coeff-Com: -0.282D-01 0.570D-01 0.119D+00 0.247D+00 0.605D+00
 Coeff-En:   0.000D+00 0.000D+00 0.000D+00 0.000D+00 0.100D+01
 Coeff:     -0.280D-01 0.566D-01 0.118D+00 0.246D+00 0.608D+00
 Gap=     0.302 Goal=   None    Shift=    0.000
 RMSDP=2.91D-05 MaxDP=1.89D-03 DE=-1.63D-03 OVMax= 4.77D-03

 Cycle   6  Pass 0  IDiag  1:
 E= -323.483634978303     Delta-E=       -0.000067684708 Rises=F Damp=F
 DIIS: error= 3.00D-04 at cycle   6 NSaved=   6.
 NSaved= 6 IEnMin= 6 EnMin= -323.483634978303     IErMin= 6 ErrMin= 3.00D-04
 ErrMax= 3.00D-04  0.00D+00 EMaxC= 1.00D-01 BMatC= 1.60D-05 BMatP= 8.95D-05
 IDIUse=3 WtCom= 9.97D-01 WtEn= 3.00D-03
 Coeff-Com:  0.164D-01-0.350D-01-0.399D-01-0.310D-02 0.328D+00 0.733D+00
 Coeff-En:   0.000D+00 0.000D+00 0.000D+00 0.000D+00 0.000D+00 0.100D+01
 Coeff:      0.163D-01-0.349D-01-0.398D-01-0.309D-02 0.327D+00 0.734D+00
 Gap=     0.302 Goal=   None    Shift=    0.000
 RMSDP=1.82D-05 MaxDP=6.45D-04 DE=-6.77D-05 OVMax= 1.83D-03

 Cycle   7  Pass 0  IDiag  1:
 E= -323.483650308150     Delta-E=       -0.000015329848 Rises=F Damp=F
 DIIS: error= 8.51D-05 at cycle   7 NSaved=   7.
 NSaved= 7 IEnMin= 7 EnMin= -323.483650308150     IErMin= 7 ErrMin= 8.51D-05
 ErrMax= 8.51D-05  0.00D+00 EMaxC= 1.00D-01 BMatC= 1.11D-06 BMatP= 1.60D-05
 IDIUse=1 WtCom= 1.00D+00 WtEn= 0.00D+00
 Coeff-Com:  0.537D-02-0.112D-01-0.141D-01-0.251D-01 0.512D-01 0.156D+00
 Coeff-Com:  0.838D+00
 Coeff:      0.537D-02-0.112D-01-0.141D-01-0.251D-01 0.512D-01 0.156D+00
 Coeff:      0.838D+00
 Gap=     0.302 Goal=   None    Shift=    0.000
 RMSDP=6.07D-06 MaxDP=2.08D-04 DE=-1.53D-05 OVMax= 6.87D-04

 Initial convergence to 1.0D-05 achieved.  Increase integral accuracy.
 Cycle   8  Pass 1  IDiag  1:
 E= -323.483672339984     Delta-E=       -0.000022031833 Rises=F Damp=F
 DIIS: error= 2.45D-05 at cycle   1 NSaved=   1.
 NSaved= 1 IEnMin= 1 EnMin= -323.483672339984     IErMin= 1 ErrMin= 2.45D-05
 ErrMax= 2.45D-05  0.00D+00 EMaxC= 1.00D-01 BMatC= 2.57D-07 BMatP= 2.57D-07
 IDIUse=1 WtCom= 1.00D+00 WtEn= 0.00D+00
 Coeff-Com:  0.100D+01
 Coeff:      0.100D+01
 Gap=     0.302 Goal=   None    Shift=    0.000
 RMSDP=6.07D-06 MaxDP=2.08D-04 DE=-2.20D-05 OVMax= 2.26D-04

 Cycle   9  Pass 1  IDiag  1:
 E= -323.483672487132     Delta-E=       -0.000000147148 Rises=F Damp=F
 DIIS: error= 3.07D-05 at cycle   2 NSaved=   2.
 NSaved= 2 IEnMin= 2 EnMin= -323.483672487132     IErMin= 1 ErrMin= 2.45D-05
 ErrMax= 3.07D-05  0.00D+00 EMaxC= 1.00D-01 BMatC= 2.21D-07 BMatP= 2.57D-07
 IDIUse=1 WtCom= 1.00D+00 WtEn= 0.00D+00
 Coeff-Com:  0.478D+00 0.522D+00
 Coeff:      0.478D+00 0.522D+00
 Gap=     0.302 Goal=   None    Shift=    0.000
 RMSDP=1.36D-06 MaxDP=7.21D-05 DE=-1.47D-07 OVMax= 2.08D-04

 Cycle  10  Pass 1  IDiag  1:
 E= -323.483672662378     Delta-E=       -0.000000175246 Rises=F Damp=F
 DIIS: error= 1.42D-05 at cycle   3 NSaved=   3.
 NSaved= 3 IEnMin= 3 EnMin= -323.483672662378     IErMin= 3 ErrMin= 1.42D-05
 ErrMax= 1.42D-05  0.00D+00 EMaxC= 1.00D-01 BMatC= 3.10D-08 BMatP= 2.21D-07
 IDIUse=1 WtCom= 1.00D+00 WtEn= 0.00D+00
 Coeff-Com:  0.312D-01 0.262D+00 0.706D+00
 Coeff:      0.312D-01 0.262D+00 0.706D+00
 Gap=     0.302 Goal=   None    Shift=    0.000
 RMSDP=8.25D-07 MaxDP=2.88D-05 DE=-1.75D-07 OVMax= 5.75D-05

 Cycle  11  Pass 1  IDiag  1:
 E= -323.483672688322     Delta-E=       -0.000000025944 Rises=F Damp=F
 DIIS: error= 5.09D-06 at cycle   4 NSaved=   4.
 NSaved= 4 IEnMin= 4 EnMin= -323.483672688322     IErMin= 4 ErrMin= 5.09D-06
 ErrMax= 5.09D-06  0.00D+00 EMaxC= 1.00D-01 BMatC= 5.88D-09 BMatP= 3.10D-08
 IDIUse=1 WtCom= 1.00D+00 WtEn= 0.00D+00
 Coeff-Com: -0.843D-01 0.720D-01 0.388D+00 0.624D+00
 Coeff:     -0.843D-01 0.720D-01 0.388D+00 0.624D+00
 Gap=     0.302 Goal=   None    Shift=    0.000
 RMSDP=2.97D-07 MaxDP=1.28D-05 DE=-2.59D-08 OVMax= 5.67D-05

 Cycle  12  Pass 1  IDiag  1:
 E= -323.483672695243     Delta-E=       -0.000000006921 Rises=F Damp=F
 DIIS: error= 1.31D-06 at cycle   5 NSaved=   5.
 NSaved= 5 IEnMin= 5 EnMin= -323.483672695243     IErMin= 5 ErrMin= 1.31D-06
 ErrMax= 1.31D-06  0.00D+00 EMaxC= 1.00D-01 BMatC= 3.23D-10 BMatP= 5.88D-09
 IDIUse=1 WtCom= 1.00D+00 WtEn= 0.00D+00
 Coeff-Com: -0.308D-03-0.149D-01-0.133D+00-0.358D-01 0.118D+01
 Coeff:     -0.308D-03-0.149D-01-0.133D+00-0.358D-01 0.118D+01
 Gap=     0.302 Goal=   None    Shift=    0.000
 RMSDP=1.85D-07 MaxDP=6.15D-06 DE=-6.92D-09 OVMax= 2.09D-05

 Cycle  13  Pass 1  IDiag  1:
 E= -323.483672696035     Delta-E=       -0.000000000792 Rises=F Damp=F
 DIIS: error= 6.31D-07 at cycle   6 NSaved=   6.
 NSaved= 6 IEnMin= 6 EnMin= -323.483672696035     IErMin= 6 ErrMin= 6.31D-07
 ErrMax= 6.31D-07  0.00D+00 EMaxC= 1.00D-01 BMatC= 6.74D-11 BMatP= 3.23D-10
 IDIUse=1 WtCom= 1.00D+00 WtEn= 0.00D+00
 Coeff-Com:  0.848D-02-0.130D-01-0.107D+00-0.834D-01 0.591D+00 0.603D+00
 Coeff:      0.848D-02-0.130D-01-0.107D+00-0.834D-01 0.591D+00 0.603D+00
 Gap=     0.302 Goal=   None    Shift=    0.000
 RMSDP=3.15D-08 MaxDP=1.58D-06 DE=-7.92D-10 OVMax= 6.34D-06

 Cycle  14  Pass 1  IDiag  1:
 E= -323.483672696089     Delta-E=       -0.000000000054 Rises=F Damp=F
 DIIS: error= 6.25D-08 at cycle   7 NSaved=   7.
 NSaved= 7 IEnMin= 7 EnMin= -323.483672696089     IErMin= 7 ErrMin= 6.25D-08
 ErrMax= 6.25D-08  0.00D+00 EMaxC= 1.00D-01 BMatC= 9.50D-13 BMatP= 6.74D-11
 IDIUse=1 WtCom= 1.00D+00 WtEn= 0.00D+00
 Coeff-Com:  0.135D-02-0.139D-02-0.131D-01-0.127D-01 0.444D-01 0.102D+00
 Coeff-Com:  0.880D+00
 Coeff:      0.135D-02-0.139D-02-0.131D-01-0.127D-01 0.444D-01 0.102D+00
 Coeff:      0.880D+00
 Gap=     0.302 Goal=   None    Shift=    0.000
 RMSDP=6.82D-09 MaxDP=2.18D-07 DE=-5.41D-11 OVMax= 9.59D-07

 SCF Done:  E(RCAM-B3LYP) =  -323.483672696     A.U. after   14 cycles
            NFock= 14  Conv=0.68D-08     -V/T= 2.0040
 KE= 3.221850649854D+02 PE=-1.301421715125D+03 EE= 3.824725386022D+02
 Leave Link  502 at Fri Aug 27 21:21:46 2021, MaxMem= 17179869184 cpu:       346.4
 (Enter /public3/home/sc51754/softwares/g09e01/l601.exe)
 Copying SCF densities to generalized density rwf, IOpCl= 0 IROHF=0.

 **********************************************************************

            Population analysis using the SCF density.

 **********************************************************************

 Orbital symmetries:
       Occupied  (A') (A') (A") (A') (A') (A") (A') (A') (A') (A')
                 (A") (A") (A') (A') (A") (A') (A") (A') (A') (A')
                 (A") (A') (A") (A") (A')
       Virtual   (A') (A') (A") (A") (A') (A") (A') (A') (A') (A")
                 (A') (A') (A') (A") (A") (A") (A') (A') (A") (A')
                 (A") (A') (A') (A") (A') (A') (A") (A') (A") (A')
                 (A') (A') (A') (A") (A') (A') (A") (A") (A") (A')
                 (A") (A') (A") (A') (A') (A") (A') (A") (A") (A')
                 (A') (A") (A") (A') (A') (A') (A') (A") (A') (A')
                 (A') (A") (A') (A") (A') (A") (A') (A") (A') (A")
                 (A') (A') (A") (A") (A") (A') (A') (A") (A") (A')
                 (A') (A") (A') (A") (A') (A') (A') (A') (A') (A")
                 (A") (A") (A') (A') (A") (A") (A') (A') (A") (A')
                 (A") (A') (A") (A") (A") (A') (A') (A') (A") (A')
                 (A') (A") (A') (A") (A') (A") (A') (A') (A") (A")
                 (A") (A') (A") (A') (A') (A") (A') (A") (A') (A')
                 (A") (A") (A') (A") (A') (A') (A') (A") (A') (A')
                 (A") (A") (A") (A') (A") (A') (A') (A') (A') (A")
                 (A') (A") (A') (A') (A") (A') (A") (A") (A") (A')
                 (A') (A') (A") (A") (A") (A') (A") (A') (A") (A')
                 (A") (A') (A") (A') (A') (A') (A") (A") (A') (A")
                 (A') (A') (A') (A") (A') (A") (A") (A') (A') (A")
                 (A") (A') (A") (A") (A') (A') (A') (A') (A") (A")
                 (A') (A') (A') (A") (A") (A") (A') (A") (A') (A')
                 (A') (A") (A') (A") (A") (A') (A") (A') (A") (A')
                 (A') (A") (A") (A") (A') (A") (A') (A") (A') (A")
                 (A') (A') (A") (A') (A') (A") (A') (A") (A") (A')
                 (A') (A") (A') (A') (A") (A') (A') (A") (A') (A')
                 (A") (A') (A") (A') (A')
 The electronic state is 1-A'.
 Alpha  occ. eigenvalues --  -19.14375 -14.46672 -10.31875 -10.31874 -10.31867
 Alpha  occ. eigenvalues --  -10.25479 -10.25479  -1.08901  -1.07612  -0.87558
 Alpha  occ. eigenvalues --   -0.87493  -0.73105  -0.70553  -0.66860  -0.58321
 Alpha  occ. eigenvalues --   -0.55490  -0.53130  -0.51640  -0.51486  -0.45685
 Alpha  occ. eigenvalues --   -0.45009  -0.43684  -0.35293  -0.29852  -0.28675
 Alpha virt. eigenvalues --    0.01550   0.01806   0.01839   0.05784   0.07442
 Alpha virt. eigenvalues --    0.10107   0.10612   0.16058   0.16436   0.18297
 Alpha virt. eigenvalues --    0.19182   0.19555   0.20205   0.22234   0.22772
 Alpha virt. eigenvalues --    0.26191   0.26587   0.26598   0.31046   0.31569
 Alpha virt. eigenvalues --    0.31933   0.32594   0.34223   0.34625   0.35955
 Alpha virt. eigenvalues --    0.36797   0.37321   0.39638   0.40348   0.43797
 Alpha virt. eigenvalues --    0.46723   0.49046   0.49466   0.49479   0.53350
 Alpha virt. eigenvalues --    0.53371   0.55003   0.58956   0.59769   0.62182
 Alpha virt. eigenvalues --    0.64096   0.64635   0.69572   0.69585   0.74840
 Alpha virt. eigenvalues --    0.74863   0.77124   0.80472   0.83967   0.85387
 Alpha virt. eigenvalues --    0.86083   0.90463   0.95049   0.95310   0.95795
 Alpha virt. eigenvalues --    1.00253   1.03057   1.03689   1.04008   1.11906
 Alpha virt. eigenvalues --    1.14645   1.15872   1.16550   1.17411   1.19642
 Alpha virt. eigenvalues --    1.21669   1.23027   1.25276   1.25676   1.27824
 Alpha virt. eigenvalues --    1.29458   1.29962   1.31295   1.34215   1.38976
 Alpha virt. eigenvalues --    1.39474   1.39492   1.47766   1.47845   1.50180
 Alpha virt. eigenvalues --    1.50619   1.51733   1.51983   1.52728   1.59801
 Alpha virt. eigenvalues --    1.61960   1.63640   1.69017   1.69691   1.70004
 Alpha virt. eigenvalues --    1.72389   1.73239   1.79365   1.81686   1.82255
 Alpha virt. eigenvalues --    1.83738   1.87476   1.88122   1.88377   1.94842
 Alpha virt. eigenvalues --    1.96422   1.99960   2.01050   2.06505   2.09402
 Alpha virt. eigenvalues --    2.09841   2.15779   2.18699   2.21784   2.24163
 Alpha virt. eigenvalues --    2.26290   2.28128   2.30084   2.33111   2.46124
 Alpha virt. eigenvalues --    2.46493   2.57221   2.57242   2.69649   2.85729
 Alpha virt. eigenvalues --    2.92898   2.96963   3.00885   3.01134   3.18736
 Alpha virt. eigenvalues --    3.22813   3.25759   3.27152   3.30049   3.30507
 Alpha virt. eigenvalues --    3.33041   3.36536   3.38592   3.41598   3.42324
 Alpha virt. eigenvalues --    3.50293   3.52301   3.56868   3.59348   3.61371
 Alpha virt. eigenvalues --    3.64437   3.69122   3.69477   3.71381   3.72482
 Alpha virt. eigenvalues --    3.74046   3.76317   3.82473   3.88474   3.95293
 Alpha virt. eigenvalues --    4.00900   4.01302   4.02096   4.03432   4.04365
 Alpha virt. eigenvalues --    4.07780   4.08427   4.08920   4.14841   4.14849
 Alpha virt. eigenvalues --    4.14911   4.17037   4.17843   4.20571   4.23956
 Alpha virt. eigenvalues --    4.25129   4.25421   4.26427   4.28463   4.29412
 Alpha virt. eigenvalues --    4.29471   4.32852   4.35122   4.35532   4.36537
 Alpha virt. eigenvalues --    4.38193   4.39144   4.40157   4.44141   4.44314
 Alpha virt. eigenvalues --    4.45461   4.47723   4.51382   4.52060   4.53339
 Alpha virt. eigenvalues --    4.53685   4.58458   4.59091   4.60537   4.62143
 Alpha virt. eigenvalues --    4.66883   4.67042   4.67989   4.72158   4.72723
 Alpha virt. eigenvalues --    4.77222   4.82229   4.83931   4.84521   4.85109
 Alpha virt. eigenvalues --    4.93333   5.00182   5.00556   5.01342   5.02223
 Alpha virt. eigenvalues --    5.05357   5.14213   5.15314   5.17051   5.25131
 Alpha virt. eigenvalues --    5.25771   5.30579   5.33778   5.34031   5.35582
 Alpha virt. eigenvalues --    5.40272   5.41663   5.48572   5.50197   5.50455
 Alpha virt. eigenvalues --    5.53937   5.54969   5.62856   5.66820   5.66825
 Alpha virt. eigenvalues --    5.66889   5.74482   5.76093   5.79467   5.83379
 Alpha virt. eigenvalues --    5.84628   5.96275   5.98301   6.01316   6.02265
 Alpha virt. eigenvalues --    6.14356   6.17446   6.24263   6.24364   6.32099
 Alpha virt. eigenvalues --    6.42762   6.57079   6.58328   6.60601   6.91833
 Alpha virt. eigenvalues --    6.97328   7.02621   7.27789   9.52715  12.44303
 Alpha virt. eigenvalues --   12.60207  15.34985  17.01425  18.46016  22.64852
          Condensed to atoms (all electrons):
               1          2          3          4          5          6
     1  C    4.709572   0.547128  -0.038374  -0.018315  -0.085036   0.368926
     2  C    0.547128   5.043014   0.385738  -0.055829  -0.018315  -0.069951
     3  C   -0.038374   0.385738   4.411701   0.385738  -0.038374  -0.010672
     4  C   -0.018315  -0.055829   0.385738   5.043014   0.547128  -0.069951
     5  C   -0.085036  -0.018315  -0.038374   0.547128   4.709572   0.368926
     6  N    0.368926  -0.069951  -0.010672  -0.069951   0.368926   6.342668
     7  H    0.420138  -0.025004   0.003788  -0.005529   0.006966  -0.038237
     8  H   -0.038640   0.437553  -0.031951   0.011911  -0.001088   0.003485
     9  H   -0.001088   0.011911  -0.031951   0.437553  -0.038640   0.003485
    10  H    0.006966  -0.005529   0.003788  -0.025004   0.420138  -0.038237
    11  O    0.008674  -0.092401   0.597318  -0.092401   0.008674   0.000819
    12  H   -0.032441   0.006927  -0.001384   0.006927  -0.032441   0.416809
               7          8          9         10         11         12
     1  C    0.420138  -0.038640  -0.001088   0.006966   0.008674  -0.032441
     2  C   -0.025004   0.437553   0.011911  -0.005529  -0.092401   0.006927
     3  C    0.003788  -0.031951  -0.031951   0.003788   0.597318  -0.001384
     4  C   -0.005529   0.011911   0.437553  -0.025004  -0.092401   0.006927
     5  C    0.006966  -0.001088  -0.038640   0.420138   0.008674  -0.032441
     6  N   -0.038237   0.003485   0.003485  -0.038237   0.000819   0.416809
     7  H    0.585477  -0.004697   0.000205  -0.000315  -0.000578  -0.008465
     8  H   -0.004697   0.555457   0.000222   0.000205   0.004739  -0.000385
     9  H    0.000205   0.000222   0.555457  -0.004697   0.004739  -0.000385
    10  H   -0.000315   0.000205  -0.004697   0.585477  -0.000578  -0.008465
    11  O   -0.000578   0.004739   0.004739  -0.000578   8.034766   0.000088
    12  H   -0.008465  -0.000385  -0.000385  -0.008465   0.000088   0.499301
 Mulliken charges:
               1
     1  C    0.152489
     2  C   -0.165242
     3  C    0.364633
     4  C   -0.165242
     5  C    0.152489
     6  N   -0.278067
     7  H    0.066252
     8  H    0.063190
     9  H    0.063190
    10  H    0.066252
    11  O   -0.473857
    12  H    0.153914
 Sum of Mulliken charges =  -0.00000
 Mulliken charges with hydrogens summed into heavy atoms:
               1
     1  C    0.218741
     2  C   -0.102052
     3  C    0.364633
     4  C   -0.102052
     5  C    0.218741
     6  N   -0.124154
    11  O   -0.473857
 Electronic spatial extent (au):  <R**2>=            642.0755
 Charge=             -0.0000 electrons
 Dipole moment (field-independent basis, Debye):
    X=              0.0013    Y=              7.1276    Z=              0.0000  Tot=              7.1276
 Quadrupole moment (field-independent basis, Debye-Ang):
   XX=            -43.5959   YY=            -43.1165   ZZ=            -34.7471
   XY=             -0.0055   XZ=              0.0000   YZ=              0.0000
 Traceless Quadrupole moment (field-independent basis, Debye-Ang):
   XX=             -3.1094   YY=             -2.6300   ZZ=              5.7394
   XY=             -0.0055   XZ=              0.0000   YZ=              0.0000
 Octapole moment (field-independent basis, Debye-Ang**2):
  XXX=             -0.0038  YYY=             59.2481  ZZZ=             -0.0000  XYY=              0.0025
  XXY=             -2.1187  XXZ=              0.0000  XZZ=              0.0092  YZZ=              4.1850
  YYZ=             -0.0000  XYZ=              0.0000
 Hexadecapole moment (field-independent basis, Debye-Ang**3):
 XXXX=            -49.2421 YYYY=           -503.0418 ZZZZ=           -267.1979 XXXY=             -0.0324
 XXXZ=             -0.0000 YYYX=             -0.0756 YYYZ=             -0.0000 ZZZX=              0.0000
 ZZZY=              0.0000 XXYY=            -94.0791 XXZZ=            -65.9448 YYZZ=           -117.8682
 XXYZ=             -0.0000 YYXZ=              0.0000 ZZXY=             -0.0067
 N-N= 2.732804388411D+02 E-N=-1.301421715541D+03  KE= 3.221850649854D+02
 Symmetry A'   KE= 2.363018928296D+02
 Symmetry A"   KE= 8.588317215584D+01
 No NMR shielding tensors so no spin-rotation constants.
 Leave Link  601 at Fri Aug 27 21:21:47 2021, MaxMem= 17179869184 cpu:        48.5
 (Enter /public3/home/sc51754/softwares/g09e01/l701.exe)
 Compute integral first derivatives.
 ... and contract with generalized density number  0.
 Leave Link  701 at Fri Aug 27 21:21:49 2021, MaxMem= 17179869184 cpu:        96.3
 (Enter /public3/home/sc51754/softwares/g09e01/l702.exe)
 L702 exits ... SP integral derivatives will be done elsewhere.
 Leave Link  702 at Fri Aug 27 21:21:49 2021, MaxMem= 17179869184 cpu:         0.2
 (Enter /public3/home/sc51754/softwares/g09e01/l703.exe)
 Compute integral first derivatives, UseDBF=F ICtDFT=           0.
 Integral derivatives from FoFJK, PRISM(SPDF).
 Calling FoFJK, ICntrl=      2127 FMM=F ISym2X=1 I1Cent= 0 IOpClX= 0 NMat=1 NMatS=1 NMatT=0.
 FoFJK:  IHMeth= 1 ICntrl=    2127 DoSepK=T KAlg= 0 I1Cent=   0 FoldK=F
 IRaf=         1 NMat=   1 IRICut=       1 DoRegI=T DoRafI=F ISym2E= 1.
 FoFCou: FMM=F IPFlag=           0 FMFlag=      100000 FMFlg1=         800
         NFxFlg=           0 DoJE=F BraDBF=F KetDBF=F FulRan=T
         wScrn=  0.000000 ICntrl=    2527 IOpCl=  0 I1Cent=           0 NGrid=           0
         NMat0=    1 NMatS0=      1 NMatT0=    0 NMatD0=    1 NMtDS0=    0 NMtDT0=    0
 Petite list used in FoFCou.
 Leave Link  703 at Fri Aug 27 21:21:52 2021, MaxMem= 17179869184 cpu:       168.9
 (Enter /public3/home/sc51754/softwares/g09e01/l716.exe)
 Dipole        = 5.27608364D-04 2.80423132D+00-8.89820027D-16
 ***** Axes restored to original set *****
 -------------------------------------------------------------------
 Center     Atomic                   Forces (Hartrees/Bohr)
 Number     Number              X              Y              Z
 -------------------------------------------------------------------
      1        6          -0.000007542    0.007795598   -0.007084646
      2        6           0.000000861   -0.007045090   -0.002302629
      3        6          -0.000015459    0.007259734    0.000000000
      4        6           0.000000861   -0.007045090    0.002302629
      5        6          -0.000007542    0.007795598    0.007084646
      6        7           0.000002579    0.004939785    0.000000000
      7        1           0.000015380    0.002425089   -0.002709879
      8        1           0.000007618   -0.001665893   -0.002884077
      9        1           0.000007618   -0.001665893    0.002884077
     10        1           0.000015380    0.002425089    0.002709879
     11        8          -0.000003673   -0.019330962    0.000000000
     12        1          -0.000016082    0.004112034   -0.000000000
 -------------------------------------------------------------------
 Cartesian Forces:  Max     0.019330962 RMS     0.004853791
 Leave Link  716 at Fri Aug 27 21:21:52 2021, MaxMem= 17179869184 cpu:         0.3
 (Enter /public3/home/sc51754/softwares/g09e01/l103.exe)

 GradGradGradGradGradGradGradGradGradGradGradGradGradGradGradGradGradGrad
 Berny optimization.
 FormGI is forming the generalized inverse of G from B-inverse, IUseBI=4.
 Internal  Forces:  Max     0.019330962 RMS     0.004758244
 Search for a local minimum.
 Step number   1 out of a maximum of   64
 All quantities printed in internal units (Hartrees-Bohrs-Radians)
 RMS Force = .47582D-02 SwitMx=.10000D-02 MixMth= 1
 Mixed Optimization -- RFO/linear search
 Second derivative matrix not updated -- first step.
 ITU=  0
     Eigenvalues ---    0.01179   0.01465   0.01838   0.01956   0.02032
     Eigenvalues ---    0.02219   0.02234   0.02399   0.02441   0.16000
     Eigenvalues ---    0.16000   0.16000   0.16000   0.16000   0.22000
     Eigenvalues ---    0.22000   0.23391   0.25000   0.34645   0.35229
     Eigenvalues ---    0.35431   0.35431   0.35528   0.35528   0.46397
     Eigenvalues ---    0.47941   0.48075   0.51510   0.53792   0.89549
 RFO step:  Lambda=-2.22975406D-03 EMin= 1.17876314D-02
 Linear search not attempted -- first point.
 Iteration  1 RMS(Cart)=  0.01451766 RMS(Int)=  0.00001893
 Iteration  2 RMS(Cart)=  0.00001950 RMS(Int)=  0.00000105
 Iteration  3 RMS(Cart)=  0.00000000 RMS(Int)=  0.00000105
 ITry= 1 IFail=0 DXMaxC= 5.40D-02 DCOld= 1.00D+10 DXMaxT= 3.00D-01 DXLimC= 3.00D+00 Rises=F
 ClnCor:  largest displacement from symmetrization is 1.95D-12 for atom     4.
 Variable       Old X    -DE/DX   Delta X   Delta X   Delta X     New X
                                 (Linear)    (Quad)   (Total)
    R1        2.56220  -0.01471   0.00000  -0.02725  -0.02725   2.53496
    R2        2.59705  -0.00969   0.00000  -0.01977  -0.01977   2.57728
    R3        2.04981  -0.00361   0.00000  -0.01012  -0.01012   2.03969
    R4        2.77562  -0.00867   0.00000  -0.02328  -0.02328   2.75233
    R5        2.04825  -0.00333   0.00000  -0.00931  -0.00931   2.03894
    R6        2.77562  -0.00867   0.00000  -0.02328  -0.02328   2.75233
    R7        2.33142  -0.01933   0.00000  -0.02153  -0.02153   2.30988
    R8        2.56220  -0.01471   0.00000  -0.02725  -0.02725   2.53496
    R9        2.04825  -0.00333   0.00000  -0.00931  -0.00931   2.03894
   R10        2.59705  -0.00969   0.00000  -0.01977  -0.01977   2.57728
   R11        2.04981  -0.00361   0.00000  -0.01012  -0.01012   2.03969
   R12        1.90386  -0.00411   0.00000  -0.00882  -0.00882   1.89504
    A1        2.11471   0.00092   0.00000   0.00304   0.00304   2.11775
    A2        2.15142  -0.00092   0.00000  -0.00436  -0.00436   2.14706
    A3        2.01706   0.00000   0.00000   0.00131   0.00131   2.01838
    A4        2.12519  -0.00156   0.00000  -0.00570  -0.00570   2.11950
    A5        2.09805   0.00071   0.00000   0.00238   0.00238   2.10044
    A6        2.05994   0.00086   0.00000   0.00332   0.00331   2.06326
    A7        1.98154   0.00123   0.00000   0.00731   0.00731   1.98885
    A8        2.15082  -0.00061   0.00000  -0.00365  -0.00365   2.14717
    A9        2.15082  -0.00061   0.00000  -0.00365  -0.00365   2.14717
   A10        2.12519  -0.00156   0.00000  -0.00570  -0.00570   2.11950
   A11        2.05994   0.00086   0.00000   0.00332   0.00331   2.06326
   A12        2.09805   0.00071   0.00000   0.00238   0.00238   2.10044
   A13        2.11471   0.00092   0.00000   0.00304   0.00304   2.11775
   A14        2.15142  -0.00092   0.00000  -0.00436  -0.00436   2.14706
   A15        2.01706   0.00000   0.00000   0.00131   0.00131   2.01838
   A16        2.10503   0.00007   0.00000  -0.00200  -0.00200   2.10303
   A17        2.08908  -0.00003   0.00000   0.00100   0.00100   2.09008
   A18        2.08908  -0.00003   0.00000   0.00100   0.00100   2.09008
    D1       -0.00015   0.00000   0.00000   0.00009   0.00009  -0.00006
    D2        3.14133   0.00000   0.00000   0.00019   0.00019   3.14152
    D3       -3.14143  -0.00000   0.00000  -0.00014  -0.00015  -3.14157
    D4        0.00006  -0.00000   0.00000  -0.00004  -0.00004   0.00002
    D5       -0.00035   0.00001   0.00000   0.00031   0.00031  -0.00004
    D6        3.14089   0.00000   0.00000   0.00014   0.00014   3.14103
    D7        3.14095   0.00001   0.00000   0.00053   0.00053   3.14148
    D8       -0.00100   0.00001   0.00000   0.00036   0.00036  -0.00064
    D9        0.00059  -0.00001   0.00000  -0.00044  -0.00044   0.00015
   D10       -3.14124   0.00000   0.00000   0.00013   0.00013  -3.14111
   D11       -3.14090  -0.00001   0.00000  -0.00054  -0.00054  -3.14144
   D12        0.00046  -0.00000   0.00000   0.00003   0.00003   0.00049
   D13       -0.00059   0.00001   0.00000   0.00044   0.00044  -0.00015
   D14        3.14090   0.00001   0.00000   0.00054   0.00054   3.14144
   D15        3.14124  -0.00000   0.00000  -0.00013  -0.00013   3.14111
   D16       -0.00046   0.00000   0.00000  -0.00003  -0.00003  -0.00049
   D17        0.00015  -0.00000   0.00000  -0.00009  -0.00009   0.00006
   D18        3.14143   0.00000   0.00000   0.00014   0.00015   3.14157
   D19       -3.14133  -0.00000   0.00000  -0.00019  -0.00019  -3.14152
   D20       -0.00006   0.00000   0.00000   0.00004   0.00004  -0.00002
   D21        0.00035  -0.00001   0.00000  -0.00031  -0.00031   0.00004
   D22       -3.14089  -0.00000   0.00000  -0.00014  -0.00014  -3.14103
   D23       -3.14095  -0.00001   0.00000  -0.00053  -0.00053  -3.14148
   D24        0.00100  -0.00001   0.00000  -0.00036  -0.00036   0.00064
         Item               Value     Threshold  Converged?
 Maximum Force            0.019331     0.000450     NO 
 RMS     Force            0.004758     0.000300     NO 
 Maximum Displacement     0.054037     0.001800     NO 
 RMS     Displacement     0.014521     0.001200     NO 
 Predicted change in Energy=-1.119904D-03
 Lowest energy point so far.  Saving SCF results.
 GradGradGradGradGradGradGradGradGradGradGradGradGradGradGradGradGradGrad

 Leave Link  103 at Fri Aug 27 21:21:53 2021, MaxMem= 17179869184 cpu:        65.1
 (Enter /public3/home/sc51754/softwares/g09e01/l202.exe)
                          Input orientation:                          
 ---------------------------------------------------------------------
 Center     Atomic      Atomic             Coordinates (Angstroms)
 Number     Number       Type             X           Y           Z
 ---------------------------------------------------------------------
      1          6           0       -0.000219   -1.040370    1.184053
      2          6           0       -0.000213    0.300558    1.221172
      3          6           0       -0.000109    1.094316    0.000000
      4          6           0       -0.000213    0.300558   -1.221172
      5          6           0       -0.000219   -1.040370   -1.184053
      6          7           0       -0.000202   -1.717183   -0.000000
      7          1           0       -0.000315   -1.653322    2.072478
      8          1           0       -0.000290    0.819699    2.167031
      9          1           0       -0.000290    0.819699   -2.167031
     10          1           0       -0.000315   -1.653322   -2.072478
     11          8           0        0.000396    2.316653    0.000000
     12          1           0        0.000285   -2.719996   -0.000000
 ---------------------------------------------------------------------
                    Distance matrix (angstroms):
                    1          2          3          4          5
     1  C    0.000000
     2  C    1.341441   0.000000
     3  C    2.441078   1.456472   0.000000
     4  C    2.753760   2.442344   1.456472   0.000000
     5  C    2.368107   2.753760   2.441078   1.341441   0.000000
     6  N    1.363840   2.358504   2.811499   2.358504   1.363840
     7  H    1.079356   2.131283   3.441610   3.829592   3.313715
     8  H    2.103830   1.078961   2.184362   3.427743   3.832704
     9  H    3.832704   3.427743   2.184362   1.078961   2.103830
    10  H    3.313715   3.829592   3.441610   2.131283   1.079356
    11  O    3.559716   2.357095   1.222337   2.357095   3.559716
    12  H    2.055025   3.258068   3.814312   3.258068   2.055025
                    6          7          8          9         10
     6  N    0.000000
     7  H    2.073462   0.000000
     8  H    3.336434   2.474827   0.000000
     9  H    3.336434   4.908082   4.334062   0.000000
    10  H    2.073462   4.144956   4.908082   2.474827   0.000000
    11  O    4.033836   4.478377   2.633798   2.633798   4.478377
    12  H    1.002813   2.330871   4.150357   4.150357   2.330871
                   11         12
    11  O    0.000000
    12  H    5.036649   0.000000
 Stoichiometry    C5H5NO
 Framework group  CS[SG(CHNO),X(C4H4)]
 Deg. of freedom    17
 Full point group                 CS      NOp   2
 RotChk:  IX=3 Diff= 6.28D-06
 Largest Abelian subgroup         CS      NOp   2
 Largest concise Abelian subgroup CS      NOp   2
                         Standard orientation:                         
 ---------------------------------------------------------------------
 Center     Atomic      Atomic             Coordinates (Angstroms)
 Number     Number       Type             X           Y           Z
 ---------------------------------------------------------------------
      1          6           0        0.000114    1.036647    1.184053
      2          6           0        0.000114   -0.304281    1.221172
      3          6           0        0.000014   -1.098039   -0.000000
      4          6           0        0.000114   -0.304281   -1.221172
      5          6           0        0.000114    1.036647   -1.184053
      6          7           0        0.000094    1.713460    0.000000
      7          1           0        0.000207    1.649599    2.072478
      8          1           0        0.000194   -0.823422    2.167031
      9          1           0        0.000194   -0.823422   -2.167031
     10          1           0        0.000207    1.649599   -2.072478
     11          8           0       -0.000485   -2.320376   -0.000000
     12          1           0       -0.000397    2.716273    0.000000
 ---------------------------------------------------------------------
 Rotational constants (GHZ):      5.7717416      2.7495517      1.8623584
 Leave Link  202 at Fri Aug 27 21:21:53 2021, MaxMem= 17179869184 cpu:         6.5
 (Enter /public3/home/sc51754/softwares/g09e01/l301.exe)
 Basis read from rwf:  (5D, 7F)
 No pseudopotential information found on rwf file.
 There are   183 symmetry adapted cartesian basis functions of A'  symmetry.
 There are   137 symmetry adapted cartesian basis functions of A"  symmetry.
 There are   158 symmetry adapted basis functions of A'  symmetry.
 There are   122 symmetry adapted basis functions of A"  symmetry.
   280 basis functions,   475 primitive gaussians,   320 cartesian basis functions
    25 alpha electrons       25 beta electrons
       nuclear repulsion energy       275.6552828288 Hartrees.
 IExCor=20419 DFT=T Ex+Corr=CAM-B3LYP ExCW=0 ScaHFX=  1.000000
 ScaDFX=  1.000000  1.000000  1.000000  0.810000 ScalE2=  1.000000  1.000000
 IRadAn=      0 IRanWt=     -1 IRanGd=            0 ICorTp=0 IEmpDi=  4
  HFx wShort=  0.000000 wLong=  0.330000 cFull=  0.190000 cShort=  0.000000 cLong=  0.460000
  DFx wShort=  0.000000 wLong=  0.330000 cFull=  0.190000 cShort=  0.000000 cLong=  0.460000
 NAtoms=   12 NActive=   12 NUniq=    8 SFac= 2.25D+00 NAtFMM=   60 NAOKFM=F Big=F
 Integral buffers will be    131072 words long.
 Raffenetti 2 integral format.
 Two-electron integral symmetry is turned on.
 No density basis found on file   724.
 Leave Link  301 at Fri Aug 27 21:21:53 2021, MaxMem= 17179869184 cpu:         1.1
 (Enter /public3/home/sc51754/softwares/g09e01/l302.exe)
 NPDir=0 NMtPBC=     1 NCelOv=     1 NCel=       1 NClECP=     1 NCelD=      1
         NCelK=      1 NCelE2=     1 NClLst=     1 CellRange=     0.0.
 One-electron integrals computed using PRISM.
 One-electron integral symmetry used in STVInt
 NBasis=   280 RedAO= T EigKep=  1.73D-04  NBF=   158   122
 NBsUse=   280 1.00D-06 EigRej= -1.00D+00 NBFU=   158   122
 Precomputing XC quadrature grid using
 IXCGrd= 4 IRadAn=           0 IRanWt=          -1 IRanGd=           0 AccXCQ= 0.00D+00.
 Generated NRdTot=       0 NPtTot=           0 NUsed=           0 NTot=          32
 NSgBfM=   320   320   320   320   320 MxSgAt=    12 MxSgA2=    12.
 Leave Link  302 at Fri Aug 27 21:21:54 2021, MaxMem= 17179869184 cpu:        42.5
 (Enter /public3/home/sc51754/softwares/g09e01/l303.exe)
 DipDrv:  MaxL=1.
 Leave Link  303 at Fri Aug 27 21:21:55 2021, MaxMem= 17179869184 cpu:        11.6
 (Enter /public3/home/sc51754/softwares/g09e01/l401.exe)
 Initial guess from the checkpoint file:  "4PY_CAM-B3LYP_PC2_OPT_FREQ.chk"
 B after Tr=     0.000000   -0.000000   -0.000000
         Rot=    1.000000    0.000000   -0.000000   -0.000014 Ang=  -0.00 deg.
 Guess basis will be translated and rotated to current coordinates.
 JPrj=2 DoOrth=T DoCkMO=T.
 Initial guess orbital symmetries:
       Occupied  (A') (A') (A") (A') (A') (A") (A') (A') (A') (A')
                 (A") (A") (A') (A') (A") (A') (A") (A') (A') (A')
                 (A") (A') (A") (A") (A')
       Virtual   (A') (A') (A') (A') (A') (A') (A') (A') (A') (A')
                 (A') (A') (A') (A') (A') (A') (A') (A') (A') (A')
                 (A') (A') (A') (A') (A') (A') (A') (A') (A') (A')
                 (A') (A') (A') (A') (A') (A') (A') (A') (A') (A')
                 (A') (A') (A') (A') (A') (A') (A') (A') (A') (A')
                 (A') (A') (A') (A') (A') (A') (A') (A') (A') (A')
                 (A') (A') (A') (A') (A') (A') (A') (A') (A') (A')
                 (A') (A') (A') (A') (A') (A') (A') (A') (A') (A')
                 (A') (A') (A') (A') (A') (A') (A') (A') (A') (A')
                 (A') (A') (A') (A') (A') (A') (A') (A') (A') (A')
                 (A') (A') (A') (A') (A') (A') (A') (A') (A') (A')
                 (A') (A') (A') (A') (A') (A') (A') (A') (A') (A')
                 (A') (A') (A') (A') (A') (A') (A') (A') (A') (A')
                 (A') (A') (A') (A') (A') (A') (A') (A') (A') (A')
                 (A') (A') (A") (A") (A") (A") (A") (A") (A") (A")
                 (A") (A") (A") (A") (A") (A") (A") (A") (A") (A")
                 (A") (A") (A") (A") (A") (A") (A") (A") (A") (A")
                 (A") (A") (A") (A") (A") (A") (A") (A") (A") (A")
                 (A") (A") (A") (A") (A") (A") (A") (A") (A") (A")
                 (A") (A") (A") (A") (A") (A") (A") (A") (A") (A")
                 (A") (A") (A") (A") (A") (A") (A") (A") (A") (A")
                 (A") (A") (A") (A") (A") (A") (A") (A") (A") (A")
                 (A") (A") (A") (A") (A") (A") (A") (A") (A") (A")
                 (A") (A") (A") (A") (A") (A") (A") (A") (A") (A")
                 (A") (A") (A") (A") (A") (A") (A") (A") (A") (A")
                 (A") (A") (A") (A") (A")
 The electronic state of the initial guess is 1-A'.
 Generating alternative initial guess.
 ExpMin= 7.41D-02 ExpMax= 1.48D+04 ExpMxC= 5.05D+02 IAcc=2 IRadAn=         4 AccDes= 0.00D+00
 Harris functional with IExCor=20419 and IRadAn=       4 diagonalized for initial guess.
 HarFok:  IExCor=20419 AccDes= 0.00D+00 IRadAn=         4 IDoV= 1 UseB2=F ITyADJ=14
 ICtDFT=  3500011 ScaDFX=  1.000000  1.000000  1.000000  1.000000
 FoFCou: FMM=F IPFlag=           0 FMFlag=      100000 FMFlg1=           0
         NFxFlg=           0 DoJE=T BraDBF=F KetDBF=T FulRan=T
         wScrn=  0.000000 ICntrl=     500 IOpCl=  0 I1Cent=   200000004 NGrid=           0
         NMat0=    1 NMatS0=      1 NMatT0=    0 NMatD0=    1 NMtDS0=    0 NMtDT0=    0
 Petite list used in FoFCou.
 Harris En= -311.343008490034    
 Leave Link  401 at Fri Aug 27 21:21:56 2021, MaxMem= 17179869184 cpu:        57.2
 (Enter /public3/home/sc51754/softwares/g09e01/l502.exe)
 Closed shell SCF:
 Using DIIS extrapolation, IDIIS=  1040.
 Integral symmetry usage will be decided dynamically.
 Keep R1 ints in memory in symmetry-blocked form, NReq=2322273034.
 IVT=      348938 IEndB=      348938 NGot= 17179869184 MDV= 16792355177
 LenX= 16792355177 LenY= 16792252336
 Requested convergence on RMS density matrix=1.00D-08 within 128 cycles.
 Requested convergence on MAX density matrix=1.00D-06.
 Requested convergence on             energy=1.00D-06.
 No special actions if energy rises.
 FoFCou: FMM=F IPFlag=           0 FMFlag=           0 FMFlg1=           0
         NFxFlg=           0 DoJE=F BraDBF=F KetDBF=F FulRan=T
         wScrn=  0.000000 ICntrl=     600 IOpCl=  0 I1Cent=           0 NGrid=           0
         NMat0=    1 NMatS0=  39340 NMatT0=    0 NMatD0=    1 NMtDS0=    0 NMtDT0=    0
 Petite list used in FoFCou.
 Integral accuracy reduced to 1.0D-05 until final iterations.

 Cycle   1  Pass 0  IDiag  1:
 E= -323.484405701842    
 DIIS: error= 9.22D-04 at cycle   1 NSaved=   1.
 NSaved= 1 IEnMin= 1 EnMin= -323.484405701842     IErMin= 1 ErrMin= 9.22D-04
 ErrMax= 9.22D-04  0.00D+00 EMaxC= 1.00D-01 BMatC= 3.25D-04 BMatP= 3.25D-04
 IDIUse=3 WtCom= 9.91D-01 WtEn= 9.22D-03
 Coeff-Com:  0.100D+01
 Coeff-En:   0.100D+01
 Coeff:      0.100D+01
 Gap=     0.692 Goal=   None    Shift=    0.000
 RMSDP=6.09D-05 MaxDP=1.65D-03              OVMax= 3.59D-03

 Cycle   2  Pass 0  IDiag  1:
 E= -323.484644386004     Delta-E=       -0.000238684163 Rises=F Damp=F
 DIIS: error= 4.86D-04 at cycle   2 NSaved=   2.
 NSaved= 2 IEnMin= 2 EnMin= -323.484644386004     IErMin= 2 ErrMin= 4.86D-04
 ErrMax= 4.86D-04  0.00D+00 EMaxC= 1.00D-01 BMatC= 4.41D-05 BMatP= 3.25D-04
 IDIUse=3 WtCom= 9.95D-01 WtEn= 4.86D-03
 Coeff-Com:  0.189D+00 0.811D+00
 Coeff-En:   0.000D+00 0.100D+01
 Coeff:      0.188D+00 0.812D+00
 Gap=     0.305 Goal=   None    Shift=    0.000
 RMSDP=2.98D-05 MaxDP=1.46D-03 DE=-2.39D-04 OVMax= 2.33D-03

 Cycle   3  Pass 0  IDiag  1:
 E= -323.484666619886     Delta-E=       -0.000022233881 Rises=F Damp=F
 DIIS: error= 3.19D-04 at cycle   3 NSaved=   3.
 NSaved= 3 IEnMin= 3 EnMin= -323.484666619886     IErMin= 3 ErrMin= 3.19D-04
 ErrMax= 3.19D-04  0.00D+00 EMaxC= 1.00D-01 BMatC= 2.23D-05 BMatP= 4.41D-05
 IDIUse=3 WtCom= 9.97D-01 WtEn= 3.19D-03
 Coeff-Com:  0.469D-02 0.408D+00 0.587D+00
 Coeff-En:   0.000D+00 0.293D+00 0.707D+00
 Coeff:      0.468D-02 0.408D+00 0.588D+00
 Gap=     0.305 Goal=   None    Shift=    0.000
 RMSDP=1.49D-05 MaxDP=6.98D-04 DE=-2.22D-05 OVMax= 1.75D-03

 Cycle   4  Pass 0  IDiag  1:
 E= -323.484683480099     Delta-E=       -0.000016860214 Rises=F Damp=F
 DIIS: error= 1.73D-04 at cycle   4 NSaved=   4.
 NSaved= 4 IEnMin= 4 EnMin= -323.484683480099     IErMin= 4 ErrMin= 1.73D-04
 ErrMax= 1.73D-04  0.00D+00 EMaxC= 1.00D-01 BMatC= 3.72D-06 BMatP= 2.23D-05
 IDIUse=3 WtCom= 9.98D-01 WtEn= 1.73D-03
 Coeff-Com: -0.163D-01 0.163D+00 0.351D+00 0.502D+00
 Coeff-En:   0.000D+00 0.000D+00 0.258D-01 0.974D+00
 Coeff:     -0.162D-01 0.163D+00 0.351D+00 0.503D+00
 Gap=     0.305 Goal=   None    Shift=    0.000
 RMSDP=5.53D-06 MaxDP=2.76D-04 DE=-1.69D-05 OVMax= 5.58D-04

 Initial convergence to 1.0D-05 achieved.  Increase integral accuracy.
 Cycle   5  Pass 1  IDiag  1:
 E= -323.484704323626     Delta-E=       -0.000020843527 Rises=F Damp=F
 DIIS: error= 2.49D-05 at cycle   1 NSaved=   1.
 NSaved= 1 IEnMin= 1 EnMin= -323.484704323626     IErMin= 1 ErrMin= 2.49D-05
 ErrMax= 2.49D-05  0.00D+00 EMaxC= 1.00D-01 BMatC= 1.29D-07 BMatP= 1.29D-07
 IDIUse=1 WtCom= 1.00D+00 WtEn= 0.00D+00
 Coeff-Com:  0.100D+01
 Coeff:      0.100D+01
 Gap=     0.305 Goal=   None    Shift=    0.000
 RMSDP=5.53D-06 MaxDP=2.76D-04 DE=-2.08D-05 OVMax= 2.22D-04

 Cycle   6  Pass 1  IDiag  1:
 E= -323.484704415033     Delta-E=       -0.000000091407 Rises=F Damp=F
 DIIS: error= 2.05D-05 at cycle   2 NSaved=   2.
 NSaved= 2 IEnMin= 2 EnMin= -323.484704415033     IErMin= 2 ErrMin= 2.05D-05
 ErrMax= 2.05D-05  0.00D+00 EMaxC= 1.00D-01 BMatC= 6.57D-08 BMatP= 1.29D-07
 IDIUse=1 WtCom= 1.00D+00 WtEn= 0.00D+00
 Coeff-Com:  0.391D+00 0.609D+00
 Coeff:      0.391D+00 0.609D+00
 Gap=     0.305 Goal=   None    Shift=    0.000
 RMSDP=1.06D-06 MaxDP=4.30D-05 DE=-9.14D-08 OVMax= 8.28D-05

 Cycle   7  Pass 1  IDiag  1:
 E= -323.484704459786     Delta-E=       -0.000000044753 Rises=F Damp=F
 DIIS: error= 9.10D-06 at cycle   3 NSaved=   3.
 NSaved= 3 IEnMin= 3 EnMin= -323.484704459786     IErMin= 3 ErrMin= 9.10D-06
 ErrMax= 9.10D-06  0.00D+00 EMaxC= 1.00D-01 BMatC= 1.09D-08 BMatP= 6.57D-08
 IDIUse=1 WtCom= 1.00D+00 WtEn= 0.00D+00
 Coeff-Com:  0.234D-01 0.276D+00 0.700D+00
 Coeff:      0.234D-01 0.276D+00 0.700D+00
 Gap=     0.305 Goal=   None    Shift=    0.000
 RMSDP=4.41D-07 MaxDP=2.27D-05 DE=-4.48D-08 OVMax= 5.83D-05

 Cycle   8  Pass 1  IDiag  1:
 E= -323.484704466314     Delta-E=       -0.000000006528 Rises=F Damp=F
 DIIS: error= 3.58D-06 at cycle   4 NSaved=   4.
 NSaved= 4 IEnMin= 4 EnMin= -323.484704466314     IErMin= 4 ErrMin= 3.58D-06
 ErrMax= 3.58D-06  0.00D+00 EMaxC= 1.00D-01 BMatC= 3.03D-09 BMatP= 1.09D-08
 IDIUse=1 WtCom= 1.00D+00 WtEn= 0.00D+00
 Coeff-Com: -0.318D-01 0.876D-01 0.425D+00 0.519D+00
 Coeff:     -0.318D-01 0.876D-01 0.425D+00 0.519D+00
 Gap=     0.305 Goal=   None    Shift=    0.000
 RMSDP=1.61D-07 MaxDP=4.77D-06 DE=-6.53D-09 OVMax= 1.11D-05

 Cycle   9  Pass 1  IDiag  1:
 E= -323.484704468731     Delta-E=       -0.000000002417 Rises=F Damp=F
 DIIS: error= 4.06D-07 at cycle   5 NSaved=   5.
 NSaved= 5 IEnMin= 5 EnMin= -323.484704468731     IErMin= 5 ErrMin= 4.06D-07
 ErrMax= 4.06D-07  0.00D+00 EMaxC= 1.00D-01 BMatC= 3.01D-11 BMatP= 3.03D-09
 IDIUse=1 WtCom= 1.00D+00 WtEn= 0.00D+00
 Coeff-Com: -0.809D-02 0.852D-02 0.767D-01 0.108D+00 0.815D+00
 Coeff:     -0.809D-02 0.852D-02 0.767D-01 0.108D+00 0.815D+00
 Gap=     0.305 Goal=   None    Shift=    0.000
 RMSDP=3.44D-08 MaxDP=1.30D-06 DE=-2.42D-09 OVMax= 4.26D-06

 Cycle  10  Pass 1  IDiag  1:
 E= -323.484704468772     Delta-E=       -0.000000000041 Rises=F Damp=F
 DIIS: error= 2.24D-07 at cycle   6 NSaved=   6.
 NSaved= 6 IEnMin= 6 EnMin= -323.484704468772     IErMin= 6 ErrMin= 2.24D-07
 ErrMax= 2.24D-07  0.00D+00 EMaxC= 1.00D-01 BMatC= 1.52D-11 BMatP= 3.01D-11
 IDIUse=1 WtCom= 1.00D+00 WtEn= 0.00D+00
 Coeff-Com:  0.223D-02-0.141D-01-0.455D-01-0.640D-01 0.364D+00 0.758D+00
 Coeff:      0.223D-02-0.141D-01-0.455D-01-0.640D-01 0.364D+00 0.758D+00
 Gap=     0.305 Goal=   None    Shift=    0.000
 RMSDP=1.99D-08 MaxDP=6.04D-07 DE=-4.14D-11 OVMax= 2.34D-06

 Cycle  11  Pass 1  IDiag  1:
 E= -323.484704468788     Delta-E=       -0.000000000015 Rises=F Damp=F
 DIIS: error= 5.02D-08 at cycle   7 NSaved=   7.
 NSaved= 7 IEnMin= 7 EnMin= -323.484704468788     IErMin= 7 ErrMin= 5.02D-08
 ErrMax= 5.02D-08  0.00D+00 EMaxC= 1.00D-01 BMatC= 8.09D-13 BMatP= 1.52D-11
 IDIUse=1 WtCom= 1.00D+00 WtEn= 0.00D+00
 Coeff-Com:  0.145D-02-0.462D-02-0.172D-01-0.319D-01 0.252D-01 0.150D+00
 Coeff-Com:  0.877D+00
 Coeff:      0.145D-02-0.462D-02-0.172D-01-0.319D-01 0.252D-01 0.150D+00
 Coeff:      0.877D+00
 Gap=     0.305 Goal=   None    Shift=    0.000
 RMSDP=6.89D-09 MaxDP=2.38D-07 DE=-1.55D-11 OVMax= 6.96D-07

 SCF Done:  E(RCAM-B3LYP) =  -323.484704469     A.U. after   11 cycles
            NFock= 11  Conv=0.69D-08     -V/T= 2.0032
 KE= 3.224628810955D+02 PE=-1.306402735383D+03 EE= 3.847998669895D+02
 Leave Link  502 at Fri Aug 27 21:22:02 2021, MaxMem= 17179869184 cpu:       272.9
[...]
 Iteration  2 RMS(Cart)=  0.00000005 RMS(Int)=  0.00000004
 ITry= 1 IFail=0 DXMaxC= 6.87D-04 DCOld= 1.00D+10 DXMaxT= 3.00D-01 DXLimC= 3.00D+00 Rises=F
 ClnCor:  largest displacement from symmetrization is 1.30D-09 for atom    10.
 Variable       Old X    -DE/DX   Delta X   Delta X   Delta X     New X
                                 (Linear)    (Quad)   (Total)
    R1        2.53763  -0.00003   0.00000  -0.00004  -0.00004   2.53759
    R2        2.57761  -0.00001   0.00000   0.00002   0.00002   2.57763
    R3        2.04097  -0.00004   0.00000  -0.00011  -0.00011   2.04086
    R4        2.75689  -0.00010   0.00000  -0.00032  -0.00032   2.75657
    R5        2.03916  -0.00001   0.00000  -0.00003  -0.00003   2.03913
    R6        2.75689  -0.00010   0.00000  -0.00032  -0.00032   2.75657
    R7        2.30925   0.00003   0.00000   0.00011   0.00011   2.30936
    R8        2.53763  -0.00003   0.00000  -0.00004  -0.00004   2.53759
    R9        2.03916  -0.00001   0.00000  -0.00003  -0.00003   2.03913
   R10        2.57761  -0.00001   0.00000   0.00002   0.00002   2.57763
   R11        2.04097  -0.00004   0.00000  -0.00011  -0.00011   2.04086
   R12        1.89519  -0.00000   0.00000  -0.00001  -0.00001   1.89518
    A1        2.11914  -0.00000   0.00000  -0.00003  -0.00003   2.11911
    A2        2.14486   0.00003   0.00000   0.00025   0.00025   2.14512
    A3        2.01918  -0.00003   0.00000  -0.00022  -0.00022   2.01896
    A4        2.12004   0.00000   0.00000  -0.00000  -0.00000   2.12003
    A5        2.10203  -0.00001   0.00000  -0.00012  -0.00012   2.10192
    A6        2.06112   0.00001   0.00000   0.00012   0.00012   2.06124
    A7        1.98610   0.00003   0.00000   0.00013   0.00013   1.98623
    A8        2.14854  -0.00001   0.00000  -0.00006  -0.00006   2.14848
    A9        2.14854  -0.00001   0.00000  -0.00006  -0.00006   2.14848
   A10        2.12004   0.00000   0.00000  -0.00000  -0.00000   2.12003
   A11        2.06112   0.00001   0.00000   0.00012   0.00012   2.06124
   A12        2.10203  -0.00001   0.00000  -0.00012  -0.00012   2.10192
   A13        2.11914  -0.00000   0.00000  -0.00003  -0.00003   2.11911
   A14        2.14486   0.00003   0.00000   0.00025   0.00025   2.14512
   A15        2.01918  -0.00003   0.00000  -0.00022  -0.00022   2.01896
   A16        2.10192  -0.00002   0.00000  -0.00006  -0.00006   2.10186
   A17        2.09063   0.00001   0.00000   0.00003   0.00003   2.09066
   A18        2.09063   0.00001   0.00000   0.00003   0.00003   2.09066
    D1       -0.00021   0.00001   0.00000   0.00021   0.00021   0.00000
    D2        3.14148   0.00001   0.00000   0.00011   0.00011   3.14159
    D3        3.14144   0.00001   0.00000   0.00015   0.00015  -3.14159
    D4       -0.00005   0.00000   0.00000   0.00005   0.00005  -0.00000
    D5       -0.00004   0.00000   0.00000   0.00004   0.00004   0.00000
    D6        3.14146   0.00000   0.00000   0.00013   0.00013  -3.14159
    D7        3.14150   0.00000   0.00000   0.00010   0.00010  -3.14159
    D8       -0.00019   0.00000   0.00000   0.00019   0.00019   0.00000
    D9        0.00042  -0.00002   0.00000  -0.00042  -0.00042  -0.00000
   D10        3.14098   0.00002   0.00000   0.00061   0.00061   3.14159
   D11       -3.14127  -0.00002   0.00000  -0.00033  -0.00033   3.14159
   D12       -0.00071   0.00003   0.00000   0.00071   0.00071  -0.00000
   D13       -0.00042   0.00002   0.00000   0.00042   0.00042   0.00000
   D14        3.14127   0.00002   0.00000   0.00033   0.00033  -3.14159
   D15       -3.14098  -0.00002   0.00000  -0.00061  -0.00061  -3.14159
   D16        0.00071  -0.00003   0.00000  -0.00071  -0.00071   0.00000
   D17        0.00021  -0.00001   0.00000  -0.00021  -0.00021  -0.00000
   D18       -3.14144  -0.00001   0.00000  -0.00015  -0.00015   3.14159
   D19       -3.14148  -0.00001   0.00000  -0.00011  -0.00011  -3.14159
   D20        0.00005  -0.00000   0.00000  -0.00005  -0.00005   0.00000
   D21        0.00004  -0.00000   0.00000  -0.00004  -0.00004  -0.00000
   D22       -3.14146  -0.00000   0.00000  -0.00013  -0.00013   3.14159
   D23       -3.14150  -0.00000   0.00000  -0.00010  -0.00010   3.14159
   D24        0.00019  -0.00000   0.00000  -0.00019  -0.00019  -0.00000
         Item               Value     Threshold  Converged?
 Maximum Force            0.000096     0.000450     YES
 RMS     Force            0.000026     0.000300     YES
 Maximum Displacement     0.000687     0.001800     YES
 RMS     Displacement     0.000151     0.001200     YES
 Predicted change in Energy=-1.169041D-07
 Optimization completed.
    -- Stationary point found.
                           ----------------------------
                           !   Optimized Parameters   !
                           ! (Angstroms and Degrees)  !
 --------------------------                            --------------------------
 ! Name  Definition              Value          Derivative Info.                !
 --------------------------------------------------------------------------------
 ! R1    R(1,2)                  1.3429         -DE/DX =    0.0                 !
 ! R2    R(1,6)                  1.364          -DE/DX =    0.0                 !
 ! R3    R(1,7)                  1.08           -DE/DX =    0.0                 !
 ! R4    R(2,3)                  1.4589         -DE/DX =   -0.0001              !
 ! R5    R(2,8)                  1.0791         -DE/DX =    0.0                 !
 ! R6    R(3,4)                  1.4589         -DE/DX =   -0.0001              !
 ! R7    R(3,11)                 1.222          -DE/DX =    0.0                 !
 ! R8    R(4,5)                  1.3429         -DE/DX =    0.0                 !
 ! R9    R(4,9)                  1.0791         -DE/DX =    0.0                 !
 ! R10   R(5,6)                  1.364          -DE/DX =    0.0                 !
 ! R11   R(5,10)                 1.08           -DE/DX =    0.0                 !
 ! R12   R(6,12)                 1.0029         -DE/DX =    0.0                 !
 ! A1    A(2,1,6)              121.4178         -DE/DX =    0.0                 !
 ! A2    A(2,1,7)              122.8914         -DE/DX =    0.0                 !
 ! A3    A(6,1,7)              115.6907         -DE/DX =    0.0                 !
 ! A4    A(1,2,3)              121.4692         -DE/DX =    0.0                 !
 ! A5    A(1,2,8)              120.4376         -DE/DX =    0.0                 !
 ! A6    A(3,2,8)              118.0932         -DE/DX =    0.0                 !
 ! A7    A(2,3,4)              113.7949         -DE/DX =    0.0                 !
 ! A8    A(2,3,11)             123.1025         -DE/DX =    0.0                 !
 ! A9    A(4,3,11)             123.1025         -DE/DX =    0.0                 !
 ! A10   A(3,4,5)              121.4692         -DE/DX =    0.0                 !
 ! A11   A(3,4,9)              118.0932         -DE/DX =    0.0                 !
 ! A12   A(5,4,9)              120.4376         -DE/DX =    0.0                 !
 ! A13   A(4,5,6)              121.4178         -DE/DX =    0.0                 !
 ! A14   A(4,5,10)             122.8914         -DE/DX =    0.0                 !
 ! A15   A(6,5,10)             115.6907         -DE/DX =    0.0                 !
 ! A16   A(1,6,5)              120.431          -DE/DX =    0.0                 !
 ! A17   A(1,6,12)             119.7845         -DE/DX =    0.0                 !
 ! A18   A(5,6,12)             119.7845         -DE/DX =    0.0                 !
 ! D1    D(6,1,2,3)             -0.0122         -DE/DX =    0.0                 !
 ! D2    D(6,1,2,8)            179.9935         -DE/DX =    0.0                 !
 ! D3    D(7,1,2,3)           -180.0085         -DE/DX =    0.0                 !
 ! D4    D(7,1,2,8)             -0.0029         -DE/DX =    0.0                 !
 ! D5    D(2,1,6,5)             -0.0021         -DE/DX =    0.0                 !
 ! D6    D(2,1,6,12)          -180.0075         -DE/DX =    0.0                 !
 ! D7    D(7,1,6,5)           -180.0055         -DE/DX =    0.0                 !
 ! D8    D(7,1,6,12)            -0.0109         -DE/DX =    0.0                 !
 ! D9    D(1,2,3,4)              0.0242         -DE/DX =    0.0                 !
 ! D10   D(1,2,3,11)           179.965          -DE/DX =    0.0                 !
 ! D11   D(8,2,3,4)            180.0187         -DE/DX =    0.0                 !
 ! D12   D(8,2,3,11)            -0.0405         -DE/DX =    0.0                 !
 ! D13   D(2,3,4,5)             -0.0242         -DE/DX =    0.0                 !
 ! D14   D(2,3,4,9)           -180.0187         -DE/DX =    0.0                 !
 ! D15   D(11,3,4,5)          -179.965          -DE/DX =    0.0                 !
 ! D16   D(11,3,4,9)             0.0405         -DE/DX =    0.0                 !
 ! D17   D(3,4,5,6)              0.0122         -DE/DX =    0.0                 !
 ! D18   D(3,4,5,10)           180.0085         -DE/DX =    0.0                 !
 ! D19   D(9,4,5,6)           -179.9935         -DE/DX =    0.0                 !
 ! D20   D(9,4,5,10)             0.0029         -DE/DX =    0.0                 !
 ! D21   D(4,5,6,1)              0.0021         -DE/DX =    0.0                 !
 ! D22   D(4,5,6,12)           180.0075         -DE/DX =    0.0                 !
 ! D23   D(10,5,6,1)           180.0055         -DE/DX =    0.0                 !
 ! D24   D(10,5,6,12)            0.0109         -DE/DX =    0.0                 !
 --------------------------------------------------------------------------------
 GradGradGradGradGradGradGradGradGradGradGradGradGradGradGradGradGradGrad

 Leave Link  103 at Fri Aug 27 21:23:30 2021, MaxMem= 17179869184 cpu:        93.6
 (Enter /public3/home/sc51754/softwares/g09e01/l9999.exe)
 1\1\GINC-T1507\Freq\RCAM-B3LYP\Gen\C5H5N1O1\SC51754\27-Aug-2021\0\\#P 
 Geom=AllCheck Guess=TCheck SCRF=Check GenChk RCAM-B3LYP/ChkBas Freq\\4
 PY_CAM-B3LYP_PC2_OPT_FREQ\\0,1\C,-0.0001630906,-1.0416708827,1.1838250
 24\C,-0.0000771779,0.300641575,1.2221006527\C,0.000260885,1.0973962452
 ,0.\C,-0.0000771779,0.300641575,-1.2221006527\C,-0.0001630906,-1.04167
 08827,-1.183825024\N,-0.0001849452,-1.7192287599,0.\H,-0.00027668,-1.6
 537938629,2.0736448847\H,-0.0001666069,0.8205611807,2.1676650145\H,-0.
 0001666069,0.8205611807,-2.1676650145\H,-0.00027668,-1.6537938629,-2.0
 736448847\O,-0.0002776584,2.3193976146,0.\H,-0.0001351708,-2.722121120
 1,0.\\Version=EM64L-G09RevE.01\State=1-A'\HF=-323.4847186\RMSD=1.226e-
 09\RMSF=5.230e-05\ZeroPoint=0.094477\Thermal=0.0998249\Dipole=0.000194
 4,-2.7793089,0.\DipoleDeriv=-0.0528162,0.0000323,-0.0000054,0.0001202,
 0.7346265,0.2765301,-0.0000129,0.419251,0.4424147,-0.2136341,-0.000129
 9,0.0000439,-0.0000641,-0.6170651,0.0475113,-0.0000032,0.5144169,-0.15
 42051,0.2633455,0.000029,0.,0.0001314,1.9668509,0.,0.,0.,0.5694929,-0.
 2136341,-0.0001299,-0.0000439,-0.0000641,-0.6170651,-0.0475113,0.00000
 32,-0.5144168,-0.1542051,-0.0528162,0.0000323,0.0000054,0.0001202,0.73
 46266,-0.2765301,0.0000129,-0.419251,0.4424147,-0.1974536,-0.0001304,0
 .,-0.0000951,-0.9432734,0.,0.,0.,-0.7759599,0.1480631,-0.0000549,-0.00
 00017,-0.0000032,0.0274847,0.0609168,0.0000268,0.0525935,0.0037857,0.1
 492568,-0.0000118,0.0000231,-0.0000053,0.0567982,-0.0324866,0.0000101,
 -0.0216208,-0.0154051,0.1492568,-0.0000118,-0.0000231,-0.0000053,0.056
 7982,0.0324866,-0.0000101,0.0216208,-0.0154051,0.1480631,-0.0000549,0.
 0000017,-0.0000032,0.0274847,-0.0609168,-0.0000268,-0.0525935,0.003785
 7,-0.4331264,0.0003458,0.,-0.0001353,-1.7212517,0.,0.,0.,-0.4837556,0.
 3054952,0.0000843,0.,0.000004,0.2939854,0.,0.,0.,0.1370421\Polar=38.11
 43499,0.0009736,90.4286849,0.,0.,67.6577854\PG=CS [SG(C1H1N1O1),X(C4H4
 )]\NImag=0\\0.13886408,0.00006562,0.84563171,-0.00003567,-0.05523086,0
 .70578049,-0.05581665,-0.00003541,0.00001772,0.11004443,-0.00004084,-0
 .47225912,0.01663318,0.00004053,0.81372968,0.00001156,-0.01927458,-0.1
 3973297,-0.00006780,0.08268743,0.65636363,-0.00018790,0.00000819,-0.00
 000206,-0.07564328,-0.00002760,0.00003333,0.20237454,-0.00000799,-0.03
 412273,0.02447875,-0.00002545,-0.11412796,0.03695571,-0.00018067,0.916
 77163,-0.00000398,0.04154119,0.04618640,0.00004580,0.02513606,-0.21974
 546,0.,0.,0.54854908,-0.00152804,-0.00000414,-0.00000421,0.00934155,0.
 00000195,0.00000687,-0.07564328,-0.00002545,-0.00004580,0.11004443,0.0
 0000148,-0.01122528,-0.02137581,0.00000195,0.02794116,0.01114060,-0.00
 002760,-0.11412796,-0.02513606,0.00004053,0.81372968,0.00000108,0.0050
 3631,-0.00287113,-0.00000687,-0.01114060,-0.02764981,-0.00003333,-0.03
 695570,-0.21974546,0.00006780,-0.08268743,0.65636363,0.00641897,0.0000
 0011,-0.00000019,-0.00152804,0.00000148,-0.00000108,-0.00018790,-0.000
 00799,0.00000398,-0.05581665,-0.00004084,-0.00001156,0.13886408,0.0000
 0011,0.02343308,0.00771822,-0.00000414,-0.01122528,-0.00503631,0.00000
 819,-0.03412273,-0.04154119,-0.00003541,-0.47225912,0.01927458,0.00006
 562,0.84563171,0.00000019,-0.00771822,-0.07168511,0.00000421,0.0213758
 1,-0.00287113,0.00000206,-0.02447875,0.04618640,-0.00001772,-0.0166331
 8,-0.13973297,0.00003567,0.05523086,0.70578049,-0.04940221,-0.00000541
 ,0.00000149,0.01124709,0.00000175,-0.00000315,-0.01068571,-0.00000195,
 0.,0.01124709,0.00000175,0.00000315,-0.04940221,-0.00000541,-0.0000014
 9,0.06935167,-0.00000468,-0.18277979,-0.09444337,-0.00000004,-0.043265
 40,-0.03869862,-0.00000273,0.01498471,0.,-0.00000004,-0.04326540,0.038
 69861,-0.00000468,-0.18277979,0.09444337,-0.00001015,0.90045471,-0.000
 00255,-0.06188865,-0.28057362,-0.00000572,-0.05537996,0.00943314,0.,0.
 ,-0.05929337,0.00000572,0.05537996,0.00943314,0.00000255,0.06188865,-0
 .28057362,0.,0.,0.70668432,-0.03903637,-0.00001559,0.00003012,0.007713
 44,-0.00000405,0.00000489,0.01143506,0.00000087,-0.00000253,-0.0011233
 1,0.00000044,-0.00000019,0.00368270,0.00000073,0.00000073,0.00120295,-
 0.00000206,-0.00000310,0.02545940,-0.00001742,-0.15689158,0.13879512,-
 0.00000816,-0.01141604,0.02760304,-0.00000012,-0.00295314,-0.00463923,
 0.00000014,0.00054564,0.00025995,-0.00000027,-0.00250974,-0.00199143,0
 .00000130,0.01366879,-0.02058200,0.00002268,0.15891212,0.00002817,0.13
 037355,-0.25024757,-0.00000156,-0.00154126,0.00665472,0.00000050,-0.00
 167806,0.00019900,0.00000018,0.00057402,0.00097018,0.00000047,-0.00601
 034,-0.00115683,0.00000302,0.01757709,-0.02677018,-0.00003002,-0.14069
 888,0.26996402,-0.00086650,-0.00000319,-0.00000202,-0.03230410,0.00001
 029,0.00002162,0.00470093,0.00000527,0.00000862,0.00320960,-0.00000125
 ,0.00000194,-0.00004887,-0.00000153,0.00000007,0.00933416,-0.00000028,
 0.00000015,-0.00568788,0.00000007,-0.00000029,0.02427066,0.00000239,-0
 .00980005,-0.02909507,0.00000765,-0.12308650,-0.12105971,-0.00000179,0
 .01265603,0.01555752,-0.00000032,-0.00202634,0.00295152,0.00000001,-0.
 00050080,0.00084880,-0.00000105,-0.00555114,0.00132824,0.00000084,0.00
 083087,0.00016709,-0.00000779,0.12629915,-0.00000098,0.00253569,0.0037
 1750,0.00002781,-0.12353671,-0.28461295,0.00000195,-0.01836061,-0.0180
 2182,0.00000169,0.00354426,-0.00371581,0.,0.00158476,-0.00070739,0.000
 00245,0.00152821,0.00335763,-0.00000152,-0.00050584,0.00070973,-0.0000
 2940,0.13269553,0.29582832,-0.00004887,-0.00000153,-0.00000007,0.00320
 960,-0.00000125,-0.00000194,0.00470093,0.00000527,-0.00000862,-0.03230
 410,0.00001029,-0.00002162,-0.00086650,-0.00000319,0.00000202,0.009334
 16,-0.00000028,-0.00000015,-0.00066978,0.00000017,-0.00000012,-0.00097
 784,0.00000049,-0.00000056,0.02427066,0.00000001,-0.00050080,-0.000848
 80,-0.00000032,-0.00202634,-0.00295152,-0.00000179,0.01265602,-0.01555
 752,0.00000765,-0.12308650,0.12105971,0.00000239,-0.00980005,0.0290950
 7,-0.00000105,-0.00555114,-0.00132824,0.00000003,0.00008910,0.00009035
 ,0.00000049,0.00056141,-0.00079954,-0.00000779,0.12629915,0.,-0.001584
 76,-0.00070739,-0.00000169,-0.00354426,-0.00371581,-0.00000195,0.01836
 060,-0.01802182,-0.00002781,0.12353671,-0.28461295,0.00000098,-0.00253
 569,0.00371750,-0.00000245,-0.00152821,0.00335763,0.00000027,0.0000973
 5,0.00003785,0.00000056,0.00079954,-0.00100205,0.00002940,-0.13269553,
 0.29582832,0.00368270,0.00000073,-0.00000073,-0.00112331,0.00000044,0.
 00000019,0.01143506,0.00000087,0.00000253,0.00771344,-0.00000405,-0.00
 000489,-0.03903637,-0.00001559,-0.00003012,0.00120295,-0.00000206,0.00
 000310,0.00103981,-0.00000019,-0.00000005,-0.00066978,0.00000003,-0.00
 000027,-0.00568788,0.00000084,0.00000152,0.02545940,-0.00000027,-0.002
 50974,0.00199143,0.00000014,0.00054564,-0.00025995,-0.00000012,-0.0029
 5314,0.00463923,-0.00000816,-0.01141604,-0.02760304,-0.00001742,-0.156
 89158,-0.13879512,0.00000130,0.01366879,0.02058200,-0.00000019,0.00044
 262,0.00069423,0.00000017,0.00008910,-0.00009735,0.00000007,0.00083087
 ,0.00050584,0.00002268,0.15891212,-0.00000047,0.00601034,-0.00115683,-
 0.00000018,-0.00057402,0.00097018,-0.00000050,0.00167806,0.00019900,0.
 00000156,0.00154126,0.00665472,-0.00002817,-0.13037355,-0.25024757,-0.
 00000302,-0.01757709,-0.02677017,0.00000005,-0.00069423,-0.00101924,0.
 00000012,-0.00009035,0.00003785,0.00000029,-0.00016709,0.00070973,0.00
 003002,0.14069888,0.26996402,0.00402774,-0.00000382,-0.00000064,0.0216
 7929,0.00001442,-0.00000291,-0.07178028,0.00023794,0.,0.02167929,0.000
 01442,0.00000291,0.00402774,-0.00000382,0.00000064,0.00013486,0.000002
 37,0.,-0.00221667,0.00000105,-0.00000013,-0.00269350,0.00000009,-0.000
 00160,-0.00269350,0.00000009,0.00000160,-0.00221667,0.00000105,0.00000
 013,0.03038474,0.00000064,0.01313952,0.01045442,0.00002256,-0.06767483
 ,0.03223355,0.00022551,-0.65344448,0.,0.00002256,-0.06767483,-0.032233
 56,0.00000064,0.01313951,-0.01045442,0.00000147,-0.01237636,0.,-0.0000
 0358,-0.00194712,0.00025156,-0.00000186,0.00091089,0.00109560,-0.00000
 186,0.00091089,-0.00109560,-0.00000358,-0.00194712,-0.00025156,-0.0002
 6344,0.77530778,0.00000169,-0.00548558,-0.01536947,-0.00001207,0.05146
 775,0.01089409,0.,0.,-0.10454652,0.00001207,-0.05146775,0.01089409,-0.
 00000169,0.00548558,-0.01536947,0.,0.,0.01496847,0.00000149,0.00189915
 ,0.00027751,-0.00000092,-0.00281000,0.00417644,0.00000092,0.00281001,0
 .00417644,-0.00000149,-0.00189915,0.00027751,0.,0.00000001,0.08893654,
 -0.00610696,-0.00000555,-0.00000376,0.00317999,0.00000287,-0.00000157,
 -0.00051819,-0.00000071,0.,0.00317999,0.00000287,0.00000157,-0.0061069
 6,-0.00000555,0.00000376,-0.00356479,0.00002464,0.,-0.00179935,0.00000
 074,-0.00000019,0.00173311,-0.00000055,0.00000041,0.00173311,-0.000000
 55,-0.00000041,-0.00179935,0.00000074,0.00000019,-0.00033306,0.0000009
 3,0.,0.01040246,0.00000095,-0.01211520,0.00092280,0.00000070,0.0028649
 9,-0.00333963,0.00000053,-0.00121626,0.,0.00000070,0.00286499,0.003339
 63,0.00000095,-0.01211520,-0.00092280,0.00001743,-0.46720799,0.,-0.000
 00013,0.00122847,0.00020064,-0.00000038,-0.00038261,0.00031599,-0.0000
 0038,-0.00038261,-0.00031599,-0.00000013,0.00122847,-0.00020064,-0.000
 00034,0.00165616,0.,-0.00001989,0.48357679,0.00000097,-0.03431442,0.00
 665971,0.00000035,-0.00158342,-0.00598763,0.,0.,-0.00194543,-0.0000003
 5,0.00158342,-0.00598763,-0.00000097,0.03431443,0.00665971,0.,0.,-0.07
 325336,-0.00000018,0.00045700,0.00038081,-0.00000044,-0.00129312,0.000
 23255,0.00000044,0.00129312,0.00023255,0.00000018,-0.00045700,0.000380
 81,0.,0.,0.00068439,0.,0.,0.07194352\\-0.00000100,-0.00004768,-0.00005
 418,-0.00004745,-0.00005447,0.00008903,0.00014856,0.00016860,0.,-0.000
 04745,-0.00005447,-0.00008903,-0.00000100,-0.00004768,0.00005418,-0.00
 000863,0.00003733,0.,0.00000492,0.00000260,0.00004955,0.00000054,0.000
 01580,0.00000290,0.00000054,0.00001580,-0.00000290,0.00000492,0.000002
 60,-0.00004955,-0.00005608,-0.00003401,0.,0.00000214,-0.00000441,0.\\\
 @


 PICNIC:  A SNACK IN THE GRASS.
 Job cpu time:       0 days  0 hours 42 minutes 15.3 seconds.
 File lengths (MBytes):  RWF=     65 Int=      0 D2E=      0 Chk=      7 Scr=      1
 Normal termination of Gaussian 09 at Fri Aug 27 21:23:30 2021.
