 Entering Gaussian System, Link 0=g09
 AtFile(1): pc-2.gbs
            -H     0
            S    4   1.00
                  0.754230D+02           0.240650D-02
                  0.113500D+02           0.184870D-01
                  0.259930D+01           0.897420D-01
                  0.735130D+00           0.281110D+00
            S    1   1.00
                  0.231670D+00           0.100000D+01
            S    1   1.00
                  0.741470D-01           0.100000D+01
            P    1   1.00
                  0.160000D+01           0.100000D+01
            P    1   1.00
                  0.450000D+00           0.100000D+01
            D    1   1.00
                  0.125000D+01           0.100000D+01
            ****
            -C     0
            S    7   1.00
                  0.785710D+04           0.568250D-03
                  0.117870D+04           0.439150D-02
                  0.268320D+03           0.225040D-01
                  0.759480D+02           0.866530D-01
                  0.245590D+02           0.244050D+00
                  0.862120D+01           0.441480D+00
                  0.312780D+01           0.353320D+00
            S    7   1.00
                  0.117870D+04          -0.594920D-06
                  0.268320D+03          -0.627480D-04
                  0.759480D+02          -0.757730D-03
                  0.245590D+02          -0.733080D-02
                  0.862120D+01          -0.389320D-01
                  0.312780D+01          -0.889080D-01
                  0.822020D+00           0.216890D+00
            S    1   1.00
                  0.330170D+00           0.100000D+01
            S    1   1.00
                  0.114630D+00           0.100000D+01
            P    4   1.00
                  0.337750D+02           0.602940D-02
                  0.767660D+01           0.432280D-01
                  0.223570D+01           0.163010D+00
                  0.764470D+00           0.365040D+00
            P    1   1.00
                  0.262320D+00           0.100000D+01
            P    1   1.00
                  0.846380D-01           0.100000D+01
            D    1   1.00
                  0.140000D+01           0.100000D+01
            D    1   1.00
                  0.450000D+00           0.100000D+01
            F    1   1.00
                  0.950000D+00           0.100000D+01
            ****
            -N     0
            S    7   1.00
                  0.111010D+05           0.545700D-03
                  0.166530D+04           0.421810D-02
                  0.379080D+03           0.216450D-01
                  0.107300D+03           0.837760D-01
                  0.347470D+02           0.238810D+00
                  0.122490D+02           0.439940D+00
                  0.447430D+01           0.363640D+00
            S    7   1.00
                  0.166530D+04          -0.150060D-05
                  0.379080D+03          -0.587530D-04
                  0.107300D+03          -0.774530D-03
                  0.347470D+02          -0.721610D-02
                  0.122490D+02          -0.393380D-01
                  0.447430D+01          -0.906110D-01
                  0.124040D+01           0.198820D+00
            S    1   1.00
                  0.487430D+00           0.100000D+01
            S    1   1.00
                  0.164840D+00           0.100000D+01
            P    4   1.00
                  0.479340D+02           0.617060D-02
                  0.109990D+02           0.442600D-01
                  0.324720D+01           0.168250D+00
                  0.111140D+01           0.368480D+00
            P    1   1.00
                  0.379880D+00           0.100000D+01
            P    1   1.00
                  0.120680D+00           0.100000D+01
            D    1   1.00
                  0.180000D+01           0.100000D+01
            D    1   1.00
                  0.550000D+00           0.100000D+01
            F    1   1.00
                  0.102000D+01           0.100000D+01
            ****
            -O     0
            S    7   1.00
                  0.147820D+05           0.535190D-03
                  0.221730D+04           0.413750D-02
                  0.504740D+03           0.212450D-01
                  0.142870D+03           0.824530D-01
                  0.463000D+02           0.236710D+00
                  0.163370D+02           0.440390D+00
                  0.598280D+01           0.364650D+00
            S    7   1.00
                  0.221730D+04          -0.192750D-05
                  0.504740D+03          -0.579640D-04
                  0.142870D+03          -0.794940D-03
                  0.463000D+02          -0.731250D-02
                  0.163370D+02          -0.405740D-01
                  0.598280D+01          -0.915940D-01
                  0.167180D+01           0.209400D+00
            S    1   1.00
                  0.646620D+00           0.100000D+01
            S    1   1.00
                  0.216690D+00           0.100000D+01
            P    4   1.00
                  0.604240D+02           0.689490D-02
                  0.139350D+02           0.490050D-01
                  0.415310D+01           0.182550D+00
                  0.141580D+01           0.376330D+00
            P    1   1.00
                  0.475490D+00           0.100000D+01
            P    1   1.00
                  0.145290D+00           0.100000D+01
            D    1   1.00
                  0.220000D+01           0.100000D+01
            D    1   1.00
                  0.650000D+00           0.100000D+01
            F    1   1.00
                  0.110000D+01           0.100000D+01
            ****
 Initial command:
 /public3/home/sc51754/softwares/g09e01/l1.exe "./Gau-62387.inp" -scrdir="./"
 Entering Link 1 = /public3/home/sc51754/softwares/g09e01/l1.exe PID=     62388.
  
 Copyright (c) 1988,1990,1992,1993,1995,1998,2003,2009,2015,
            Gaussian, Inc.  All Rights Reserved.
  
 This is part of the Gaussian(R) 09 program.  It is based on
 the Gaussian(R) 03 system (copyright 2003, Gaussian, Inc.),
 the Gaussian(R) 98 system (copyright 1998, Gaussian, Inc.),
 the Gaussian(R) 94 system (copyright 1995, Gaussian, Inc.),
 the Gaussian 92(TM) system (copyright 1992, Gaussian, Inc.),
 the Gaussian 90(TM) system (copyright 1990, Gaussian, Inc.),
 the Gaussian 88(TM) system (copyright 1988, Gaussian, Inc.),
 the Gaussian 86(TM) system (copyright 1986, Carnegie Mellon
 University), and the Gaussian 82(TM) system (copyright 1983,
 Carnegie Mellon University). Gaussian is a federally registered
 trademark of Gaussian, Inc.
  
 This software contains proprietary and confidential information,
 including trade secrets, belonging to Gaussian, Inc.
  
 This software is provided under written license and may be
 used, copied, transmitted, or stored only in accord with that
 written license.
  
 The following legend is applicable only to US Government
 contracts under FAR:
  
                    RESTRICTED RIGHTS LEGEND
  
 Use, reproduction and disclosure by the US Government is
 subject to restrictions as set forth in subparagraphs (a)
 and (c) of the Commercial Computer Software - Restricted
 Rights clause in FAR 52.227-19.
  
 Gaussian, Inc.
 340 Quinnipiac St., Bldg. 40, Wallingford CT 06492
  
  
 ---------------------------------------------------------------
 Warning -- This program may not be used in any manner that
 competes with the business of Gaussian, Inc. or will provide
 assistance to any competitor of Gaussian, Inc.  The licensee
 of this program is prohibited from giving any competitor of
 Gaussian, Inc. access to this program.  By using this program,
 the user acknowledges that Gaussian, Inc. is engaged in the
 business of creating and licensing software in the field of
 computational chemistry and represents and warrants to the
 licensee that it is not a competitor of Gaussian, Inc. and that
 it will not use this program in any manner prohibited above.
 ---------------------------------------------------------------
  

 Cite this work as:
 Gaussian 09, Revision E.01,
 M. J. Frisch, G. W. Trucks, H. B. Schlegel, G. E. Scuseria, 
 M. A. Robb, J. R. Cheeseman, G. Scalmani, V. Barone, B. Mennucci, 
 G. A. Petersson, H. Nakatsuji, M. Caricato, X. Li, H. P. Hratchian, 
 A. F. Izmaylov, J. Bloino, G. Zheng, J. L. Sonnenberg, M. Hada, 
 M. Ehara, K. Toyota, R. Fukuda, J. Hasegawa, M. Ishida, T. Nakajima, 
 Y. Honda, O. Kitao, H. Nakai, T. Vreven, J. A. Montgomery, Jr., 
 J. E. Peralta, F. Ogliaro, M. Bearpark, J. J. Heyd, E. Brothers, 
 K. N. Kudin, V. N. Staroverov, T. Keith, R. Kobayashi, J. Normand, 
 K. Raghavachari, A. Rendell, J. C. Burant, S. S. Iyengar, J. Tomasi, 
 M. Cossi, N. Rega, J. M. Millam, M. Klene, J. E. Knox, J. B. Cross, 
 V. Bakken, C. Adamo, J. Jaramillo, R. Gomperts, R. E. Stratmann, 
 O. Yazyev, A. J. Austin, R. Cammi, C. Pomelli, J. W. Ochterski, 
 R. L. Martin, K. Morokuma, V. G. Zakrzewski, G. A. Voth, 
 P. Salvador, J. J. Dannenberg, S. Dapprich, A. D. Daniels, 
 O. Farkas, J. B. Foresman, J. V. Ortiz, J. Cioslowski, 
 and D. J. Fox, Gaussian, Inc., Wallingford CT, 2013.
 
 ******************************************
 Gaussian 09:  EM64L-G09RevE.01 30-Nov-2015
                27-Aug-2021 
 ******************************************
 %nprocshared=64
 Will use up to   64 processors via shared memory.
 %mem=128GB
 %chk=4PY_wB97_PC2_OPT_FREQ.chk
 --------------------
 #p opt freq wB97/gen
 --------------------
 1/14=-1,18=20,19=15,26=3,38=1/1,3;
 2/9=110,12=2,17=6,18=5,40=1/2;
 3/5=7,11=2,16=1,25=1,30=1,71=1,74=-56/1,2,3;
 4//1;
 5/5=2,38=5/2;
 6/7=2,8=2,9=2,10=2,28=1/1;
 7//1,2,3,16;
 1/14=-1,18=20,19=15,26=3/3(2);
 2/9=110/2;
 99//99;
 2/9=110/2;
 3/5=7,6=1,11=2,16=1,25=1,30=1,71=1,74=-56,82=7/1,2,3;
 4/5=5,16=3,69=1/1;
 5/5=2,38=5/2;
 7//1,2,3,16;
 1/14=-1,18=20,19=15,26=3/3(-5);
 2/9=110/2;
 6/7=2,8=2,9=2,10=2,19=2,28=1/1;
 99/9=1/99;
 Leave Link    1 at Fri Aug 27 21:25:26 2021, MaxMem= 17179869184 cpu:         6.7
 (Enter /public3/home/sc51754/softwares/g09e01/l101.exe)
 ---------------------
 4PY_wB97_PC2_OPT_FREQ
 ---------------------
 Symbolic Z-matrix:
 Charge =  0 Multiplicity = 1
 C                    -0.00018  -1.04887   1.19382 
 C                    -0.00018   0.30655   1.22857 
 C                     0.00022   1.11152   0. 
 C                    -0.00018   0.30655  -1.22857 
 C                    -0.00018  -1.04887  -1.19382 
 N                     0.00002  -1.72968   0. 
 H                    -0.00063  -1.66693   2.08522 
 H                    -0.00059   0.82774   2.17893 
 H                    -0.00059   0.82774  -2.17893 
 H                    -0.00063  -1.66693  -2.08522 
 O                     0.0006    2.34525   0. 
 H                     0.00063  -2.73716   0. 
 
 NAtoms=     12 NQM=       12 NQMF=       0 NMMI=      0 NMMIF=      0
                NMic=       0 NMicF=      0.
                    Isotopes and Nuclear Properties:
 (Nuclear quadrupole moments (NQMom) in fm**2, nuclear magnetic moments (NMagM)
  in nuclear magnetons)

  Atom         1           2           3           4           5           6           7           8           9          10
 IAtWgt=          12          12          12          12          12          14           1           1           1           1
 AtmWgt=  12.0000000  12.0000000  12.0000000  12.0000000  12.0000000  14.0030740   1.0078250   1.0078250   1.0078250   1.0078250
 NucSpn=           0           0           0           0           0           2           1           1           1           1
 AtZEff=   0.0000000   0.0000000   0.0000000   0.0000000   0.0000000   0.0000000   0.0000000   0.0000000   0.0000000   0.0000000
 NQMom=    0.0000000   0.0000000   0.0000000   0.0000000   0.0000000   2.0440000   0.0000000   0.0000000   0.0000000   0.0000000
 NMagM=    0.0000000   0.0000000   0.0000000   0.0000000   0.0000000   0.4037610   2.7928460   2.7928460   2.7928460   2.7928460
 AtZNuc=   6.0000000   6.0000000   6.0000000   6.0000000   6.0000000   7.0000000   1.0000000   1.0000000   1.0000000   1.0000000

  Atom        11          12
 IAtWgt=          16           1
 AtmWgt=  15.9949146   1.0078250
 NucSpn=           0           1
 AtZEff=   0.0000000   0.0000000
 NQMom=    0.0000000   0.0000000
 NMagM=    0.0000000   2.7928460
 AtZNuc=   8.0000000   1.0000000
 Leave Link  101 at Fri Aug 27 21:25:26 2021, MaxMem= 17179869184 cpu:         7.8
 (Enter /public3/home/sc51754/softwares/g09e01/l103.exe)

 GradGradGradGradGradGradGradGradGradGradGradGradGradGradGradGradGradGrad
 Berny optimization.
 Initialization pass.
                           ----------------------------
                           !    Initial Parameters    !
                           ! (Angstroms and Degrees)  !
 --------------------------                            --------------------------
 ! Name  Definition              Value          Derivative Info.                !
 --------------------------------------------------------------------------------
 ! R1    R(1,2)                  1.3559         estimate D2E/DX2                !
 ! R2    R(1,6)                  1.3743         estimate D2E/DX2                !
 ! R3    R(1,7)                  1.0847         estimate D2E/DX2                !
 ! R4    R(2,3)                  1.4688         estimate D2E/DX2                !
 ! R5    R(2,8)                  1.0839         estimate D2E/DX2                !
 ! R6    R(3,4)                  1.4688         estimate D2E/DX2                !
 ! R7    R(3,11)                 1.2337         estimate D2E/DX2                !
 ! R8    R(4,5)                  1.3559         estimate D2E/DX2                !
 ! R9    R(4,9)                  1.0839         estimate D2E/DX2                !
 ! R10   R(5,6)                  1.3743         estimate D2E/DX2                !
 ! R11   R(5,10)                 1.0847         estimate D2E/DX2                !
 ! R12   R(6,12)                 1.0075         estimate D2E/DX2                !
 ! A1    A(2,1,6)              121.1639         estimate D2E/DX2                !
 ! A2    A(2,1,7)              123.267          estimate D2E/DX2                !
 ! A3    A(6,1,7)              115.5691         estimate D2E/DX2                !
 ! A4    A(1,2,3)              121.7645         estimate D2E/DX2                !
 ! A5    A(1,2,8)              120.2096         estimate D2E/DX2                !
 ! A6    A(3,2,8)              118.0259         estimate D2E/DX2                !
 ! A7    A(2,3,4)              113.5338         estimate D2E/DX2                !
 ! A8    A(2,3,11)             123.2331         estimate D2E/DX2                !
 ! A9    A(4,3,11)             123.2331         estimate D2E/DX2                !
 ! A10   A(3,4,5)              121.7645         estimate D2E/DX2                !
 ! A11   A(3,4,9)              118.0259         estimate D2E/DX2                !
 ! A12   A(5,4,9)              120.2096         estimate D2E/DX2                !
 ! A13   A(4,5,6)              121.1639         estimate D2E/DX2                !
 ! A14   A(4,5,10)             123.267          estimate D2E/DX2                !
 ! A15   A(6,5,10)             115.5691         estimate D2E/DX2                !
 ! A16   A(1,6,5)              120.6094         estimate D2E/DX2                !
 ! A17   A(1,6,12)             119.6953         estimate D2E/DX2                !
 ! A18   A(5,6,12)             119.6953         estimate D2E/DX2                !
 ! D1    D(6,1,2,3)             -0.0087         estimate D2E/DX2                !
 ! D2    D(6,1,2,8)            179.9852         estimate D2E/DX2                !
 ! D3    D(7,1,2,3)           -179.9904         estimate D2E/DX2                !
 ! D4    D(7,1,2,8)              0.0035         estimate D2E/DX2                !
 ! D5    D(2,1,6,5)             -0.0199         estimate D2E/DX2                !
 ! D6    D(2,1,6,12)           179.9596         estimate D2E/DX2                !
 ! D7    D(7,1,6,5)            179.9631         estimate D2E/DX2                !
 ! D8    D(7,1,6,12)            -0.0574         estimate D2E/DX2                !
 ! D9    D(1,2,3,4)              0.0339         estimate D2E/DX2                !
 ! D10   D(1,2,3,11)          -179.9797         estimate D2E/DX2                !
 ! D11   D(8,2,3,4)           -179.9602         estimate D2E/DX2                !
 ! D12   D(8,2,3,11)             0.0262         estimate D2E/DX2                !
 ! D13   D(2,3,4,5)             -0.0339         estimate D2E/DX2                !
 ! D14   D(2,3,4,9)            179.9602         estimate D2E/DX2                !
 ! D15   D(11,3,4,5)           179.9797         estimate D2E/DX2                !
 ! D16   D(11,3,4,9)            -0.0262         estimate D2E/DX2                !
 ! D17   D(3,4,5,6)              0.0087         estimate D2E/DX2                !
 ! D18   D(3,4,5,10)           179.9904         estimate D2E/DX2                !
 ! D19   D(9,4,5,6)           -179.9852         estimate D2E/DX2                !
 ! D20   D(9,4,5,10)            -0.0035         estimate D2E/DX2                !
 ! D21   D(4,5,6,1)              0.0199         estimate D2E/DX2                !
 ! D22   D(4,5,6,12)          -179.9596         estimate D2E/DX2                !
 ! D23   D(10,5,6,1)          -179.9631         estimate D2E/DX2                !
 ! D24   D(10,5,6,12)            0.0574         estimate D2E/DX2                !
 --------------------------------------------------------------------------------
 Trust Radius=3.00D-01 FncErr=1.00D-07 GrdErr=1.00D-06
 Number of steps in this run=     64 maximum allowed number of steps=    100.
 GradGradGradGradGradGradGradGradGradGradGradGradGradGradGradGradGradGrad

 Leave Link  103 at Fri Aug 27 21:25:27 2021, MaxMem= 17179869184 cpu:         0.2
 (Enter /public3/home/sc51754/softwares/g09e01/l202.exe)
                          Input orientation:                          
 ---------------------------------------------------------------------
 Center     Atomic      Atomic             Coordinates (Angstroms)
 Number     Number       Type             X           Y           Z
 ---------------------------------------------------------------------
      1          6           0       -0.000184   -1.048866    1.193818
      2          6           0       -0.000184    0.306549    1.228568
      3          6           0        0.000221    1.111516    0.000000
      4          6           0       -0.000184    0.306549   -1.228568
      5          6           0       -0.000184   -1.048866   -1.193818
      6          7           0        0.000018   -1.729678    0.000000
      7          1           0       -0.000630   -1.666925    2.085223
      8          1           0       -0.000587    0.827738    2.178925
      9          1           0       -0.000587    0.827738   -2.178925
     10          1           0       -0.000630   -1.666925   -2.085223
     11          8           0        0.000597    2.345248    0.000000
     12          1           0        0.000630   -2.737158    0.000000
 ---------------------------------------------------------------------
                    Distance matrix (angstroms):
                    1          2          3          4          5
     1  C    0.000000
     2  C    1.355860   0.000000
     3  C    2.468289   1.468792   0.000000
     4  C    2.775807   2.457136   1.468792   0.000000
     5  C    2.387636   2.775807   2.468289   1.355860   0.000000
     6  N    1.374302   2.378150   2.841194   2.378150   1.374302
     7  H    1.084712   2.151385   3.473887   3.856917   3.336781
     8  H    2.119452   1.083890   2.197327   3.447122   3.859668
     9  H    3.859668   3.447122   2.197327   1.083890   2.119452
    10  H    3.336781   3.856917   3.473887   2.151385   1.084712
    11  O    3.597946   2.380268   1.233732   2.380268   3.597946
    12  H    2.067736   3.282306   3.848674   3.282306   2.067736
                    6          7          8          9         10
     6  N    0.000000
     7  H    2.086167   0.000000
     8  H    3.359775   2.496422   0.000000
     9  H    3.359775   4.940273   4.357850   0.000000
    10  H    2.086167   4.170446   4.940273   2.496422   0.000000
    11  O    4.074926   4.521691   2.655288   2.655288   4.521691
    12  H    1.007480   2.343833   4.178062   4.178062   2.343833
                   11         12
    11  O    0.000000
    12  H    5.082406   0.000000
 Stoichiometry    C5H5NO
 Framework group  CS[SG(CHNO),X(C4H4)]
 Deg. of freedom    17
 Full point group                 CS      NOp   2
 Largest Abelian subgroup         CS      NOp   2
 Largest concise Abelian subgroup CS      NOp   2
                         Standard orientation:                         
 ---------------------------------------------------------------------
 Center     Atomic      Atomic             Coordinates (Angstroms)
 Number     Number       Type             X           Y           Z
 ---------------------------------------------------------------------
      1          6           0        0.000184    1.048866    1.193818
      2          6           0        0.000184   -0.306549    1.228568
      3          6           0       -0.000221   -1.111516   -0.000000
      4          6           0        0.000184   -0.306549   -1.228568
      5          6           0        0.000184    1.048866   -1.193818
      6          7           0       -0.000018    1.729678    0.000000
      7          1           0        0.000630    1.666925    2.085223
      8          1           0        0.000587   -0.827738    2.178925
      9          1           0        0.000587   -0.827738   -2.178925
     10          1           0        0.000630    1.666925   -2.085223
     11          8           0       -0.000597   -2.345248   -0.000000
     12          1           0       -0.000630    2.737158    0.000000
 ---------------------------------------------------------------------
 Rotational constants (GHZ):      5.6935111      2.6926956      1.8281082
 Leave Link  202 at Fri Aug 27 21:25:27 2021, MaxMem= 17179869184 cpu:         5.0
 (Enter /public3/home/sc51754/softwares/g09e01/l301.exe)
 General basis read from cards:  (5D, 7F)
 Centers:       7      8      9     10     12
 S 4 1.00
     Exponent=  7.5423000000D+01 Coefficients=  2.4065000000D-03
     Exponent=  1.1350000000D+01 Coefficients=  1.8487000000D-02
     Exponent=  2.5993000000D+00 Coefficients=  8.9742000000D-02
     Exponent=  7.3513000000D-01 Coefficients=  2.8111000000D-01
 S 1 1.00
     Exponent=  2.3167000000D-01 Coefficients=  1.0000000000D+00
 S 1 1.00
     Exponent=  7.4147000000D-02 Coefficients=  1.0000000000D+00
 P 1 1.00
     Exponent=  1.6000000000D+00 Coefficients=  1.0000000000D+00
 P 1 1.00
     Exponent=  4.5000000000D-01 Coefficients=  1.0000000000D+00
 D 1 1.00
     Exponent=  1.2500000000D+00 Coefficients=  1.0000000000D+00
 ****
 Centers:       1      2      3      4      5
 S 7 1.00
     Exponent=  7.8571000000D+03 Coefficients=  5.6825000000D-04
     Exponent=  1.1787000000D+03 Coefficients=  4.3915000000D-03
     Exponent=  2.6832000000D+02 Coefficients=  2.2504000000D-02
     Exponent=  7.5948000000D+01 Coefficients=  8.6653000000D-02
     Exponent=  2.4559000000D+01 Coefficients=  2.4405000000D-01
     Exponent=  8.6212000000D+00 Coefficients=  4.4148000000D-01
     Exponent=  3.1278000000D+00 Coefficients=  3.5332000000D-01
 S 7 1.00
     Exponent=  1.1787000000D+03 Coefficients= -5.9492000000D-07
     Exponent=  2.6832000000D+02 Coefficients= -6.2748000000D-05
     Exponent=  7.5948000000D+01 Coefficients= -7.5773000000D-04
     Exponent=  2.4559000000D+01 Coefficients= -7.3308000000D-03
     Exponent=  8.6212000000D+00 Coefficients= -3.8932000000D-02
     Exponent=  3.1278000000D+00 Coefficients= -8.8908000000D-02
     Exponent=  8.2202000000D-01 Coefficients=  2.1689000000D-01
 S 1 1.00
     Exponent=  3.3017000000D-01 Coefficients=  1.0000000000D+00
 S 1 1.00
     Exponent=  1.1463000000D-01 Coefficients=  1.0000000000D+00
 P 4 1.00
     Exponent=  3.3775000000D+01 Coefficients=  6.0294000000D-03
     Exponent=  7.6766000000D+00 Coefficients=  4.3228000000D-02
     Exponent=  2.2357000000D+00 Coefficients=  1.6301000000D-01
     Exponent=  7.6447000000D-01 Coefficients=  3.6504000000D-01
 P 1 1.00
     Exponent=  2.6232000000D-01 Coefficients=  1.0000000000D+00
 P 1 1.00
     Exponent=  8.4638000000D-02 Coefficients=  1.0000000000D+00
 D 1 1.00
     Exponent=  1.4000000000D+00 Coefficients=  1.0000000000D+00
 D 1 1.00
     Exponent=  4.5000000000D-01 Coefficients=  1.0000000000D+00
 F 1 1.00
     Exponent=  9.5000000000D-01 Coefficients=  1.0000000000D+00
 ****
 Centers:       6
 S 7 1.00
     Exponent=  1.1101000000D+04 Coefficients=  5.4570000000D-04
     Exponent=  1.6653000000D+03 Coefficients=  4.2181000000D-03
     Exponent=  3.7908000000D+02 Coefficients=  2.1645000000D-02
     Exponent=  1.0730000000D+02 Coefficients=  8.3776000000D-02
     Exponent=  3.4747000000D+01 Coefficients=  2.3881000000D-01
     Exponent=  1.2249000000D+01 Coefficients=  4.3994000000D-01
     Exponent=  4.4743000000D+00 Coefficients=  3.6364000000D-01
 S 7 1.00
     Exponent=  1.6653000000D+03 Coefficients= -1.5006000000D-06
     Exponent=  3.7908000000D+02 Coefficients= -5.8753000000D-05
     Exponent=  1.0730000000D+02 Coefficients= -7.7453000000D-04
     Exponent=  3.4747000000D+01 Coefficients= -7.2161000000D-03
     Exponent=  1.2249000000D+01 Coefficients= -3.9338000000D-02
     Exponent=  4.4743000000D+00 Coefficients= -9.0611000000D-02
     Exponent=  1.2404000000D+00 Coefficients=  1.9882000000D-01
 S 1 1.00
     Exponent=  4.8743000000D-01 Coefficients=  1.0000000000D+00
 S 1 1.00
     Exponent=  1.6484000000D-01 Coefficients=  1.0000000000D+00
 P 4 1.00
     Exponent=  4.7934000000D+01 Coefficients=  6.1706000000D-03
     Exponent=  1.0999000000D+01 Coefficients=  4.4260000000D-02
     Exponent=  3.2472000000D+00 Coefficients=  1.6825000000D-01
     Exponent=  1.1114000000D+00 Coefficients=  3.6848000000D-01
 P 1 1.00
     Exponent=  3.7988000000D-01 Coefficients=  1.0000000000D+00
 P 1 1.00
     Exponent=  1.2068000000D-01 Coefficients=  1.0000000000D+00
 D 1 1.00
     Exponent=  1.8000000000D+00 Coefficients=  1.0000000000D+00
 D 1 1.00
     Exponent=  5.5000000000D-01 Coefficients=  1.0000000000D+00
 F 1 1.00
     Exponent=  1.0200000000D+00 Coefficients=  1.0000000000D+00
 ****
 Centers:      11
 S 7 1.00
     Exponent=  1.4782000000D+04 Coefficients=  5.3519000000D-04
     Exponent=  2.2173000000D+03 Coefficients=  4.1375000000D-03
     Exponent=  5.0474000000D+02 Coefficients=  2.1245000000D-02
     Exponent=  1.4287000000D+02 Coefficients=  8.2453000000D-02
     Exponent=  4.6300000000D+01 Coefficients=  2.3671000000D-01
     Exponent=  1.6337000000D+01 Coefficients=  4.4039000000D-01
     Exponent=  5.9828000000D+00 Coefficients=  3.6465000000D-01
 S 7 1.00
     Exponent=  2.2173000000D+03 Coefficients= -1.9275000000D-06
     Exponent=  5.0474000000D+02 Coefficients= -5.7964000000D-05
     Exponent=  1.4287000000D+02 Coefficients= -7.9494000000D-04
     Exponent=  4.6300000000D+01 Coefficients= -7.3125000000D-03
     Exponent=  1.6337000000D+01 Coefficients= -4.0574000000D-02
     Exponent=  5.9828000000D+00 Coefficients= -9.1594000000D-02
     Exponent=  1.6718000000D+00 Coefficients=  2.0940000000D-01
 S 1 1.00
     Exponent=  6.4662000000D-01 Coefficients=  1.0000000000D+00
 S 1 1.00
     Exponent=  2.1669000000D-01 Coefficients=  1.0000000000D+00
 P 4 1.00
     Exponent=  6.0424000000D+01 Coefficients=  6.8949000000D-03
     Exponent=  1.3935000000D+01 Coefficients=  4.9005000000D-02
     Exponent=  4.1531000000D+00 Coefficients=  1.8255000000D-01
     Exponent=  1.4158000000D+00 Coefficients=  3.7633000000D-01
 P 1 1.00
     Exponent=  4.7549000000D-01 Coefficients=  1.0000000000D+00
 P 1 1.00
     Exponent=  1.4529000000D-01 Coefficients=  1.0000000000D+00
 D 1 1.00
     Exponent=  2.2000000000D+00 Coefficients=  1.0000000000D+00
 D 1 1.00
     Exponent=  6.5000000000D-01 Coefficients=  1.0000000000D+00
 F 1 1.00
     Exponent=  1.1000000000D+00 Coefficients=  1.0000000000D+00
 ****
 Ernie: Thresh=  0.10000D-02 Tol=  0.10000D-05 Strict=F.
 Ernie:  7 primitive shells out of 220 were deleted.
 There are   183 symmetry adapted cartesian basis functions of A'  symmetry.
 There are   137 symmetry adapted cartesian basis functions of A"  symmetry.
 There are   158 symmetry adapted basis functions of A'  symmetry.
 There are   122 symmetry adapted basis functions of A"  symmetry.
   280 basis functions,   475 primitive gaussians,   320 cartesian basis functions
    25 alpha electrons       25 beta electrons
       nuclear repulsion energy       273.2804388411 Hartrees.
 IExCor= 4437 DFT=T Ex+Corr=wB97 ExCW=0 ScaHFX=  1.000000
 ScaDFX=  1.000000  1.000000  1.000000  1.000000 ScalE2=  1.000000  1.000000
 IRadAn=      0 IRanWt=     -1 IRanGd=            0 ICorTp=0 IEmpDi=  4
  HFx wShort=  0.000000 wLong=  0.400000 cFull=  0.000000 cShort=  0.000000 cLong=  1.000000
  DFx wShort=  0.000000 wLong=  0.400000 cFull=  0.000000 cShort=  0.000000 cLong=  1.000000
 NAtoms=   12 NActive=   12 NUniq=    8 SFac= 2.25D+00 NAtFMM=   60 NAOKFM=F Big=F
 Integral buffers will be    131072 words long.
 Raffenetti 2 integral format.
 Two-electron integral symmetry is turned on.
 Leave Link  301 at Fri Aug 27 21:25:27 2021, MaxMem= 17179869184 cpu:         1.7
 (Enter /public3/home/sc51754/softwares/g09e01/l302.exe)
 NPDir=0 NMtPBC=     1 NCelOv=     1 NCel=       1 NClECP=     1 NCelD=      1
         NCelK=      1 NCelE2=     1 NClLst=     1 CellRange=     0.0.
 One-electron integrals computed using PRISM.
 One-electron integral symmetry used in STVInt
 NBasis=   280 RedAO= T EigKep=  1.83D-04  NBF=   158   122
 NBsUse=   280 1.00D-06 EigRej= -1.00D+00 NBFU=   158   122
 Precomputing XC quadrature grid using
 IXCGrd= 4 IRadAn=           0 IRanWt=          -1 IRanGd=           0 AccXCQ= 0.00D+00.
 Generated NRdTot=       0 NPtTot=           0 NUsed=           0 NTot=          32
 NSgBfM=   320   320   320   320   320 MxSgAt=    12 MxSgA2=    12.
 Leave Link  302 at Fri Aug 27 21:25:28 2021, MaxMem= 17179869184 cpu:        48.2
 (Enter /public3/home/sc51754/softwares/g09e01/l303.exe)
 DipDrv:  MaxL=1.
 Leave Link  303 at Fri Aug 27 21:25:28 2021, MaxMem= 17179869184 cpu:        13.2
 (Enter /public3/home/sc51754/softwares/g09e01/l401.exe)
 ExpMin= 7.41D-02 ExpMax= 1.48D+04 ExpMxC= 5.05D+02 IAcc=2 IRadAn=         4 AccDes= 0.00D+00
 Harris functional with IExCor= 4437 and IRadAn=       4 diagonalized for initial guess.
 HarFok:  IExCor= 4437 AccDes= 0.00D+00 IRadAn=         4 IDoV= 1 UseB2=F ITyADJ=14
 ICtDFT=  3500011 ScaDFX=  1.000000  1.000000  1.000000  1.000000
 FoFCou: FMM=F IPFlag=           0 FMFlag=      100000 FMFlg1=           0
         NFxFlg=           0 DoJE=T BraDBF=F KetDBF=T FulRan=T
         wScrn=  0.000000 ICntrl=     500 IOpCl=  0 I1Cent=   200000004 NGrid=           0
         NMat0=    1 NMatS0=      1 NMatT0=    0 NMatD0=    1 NMtDS0=    0 NMtDT0=    0
 Petite list used in FoFCou.
 Harris En= -313.591722432955    
 JPrj=0 DoOrth=F DoCkMO=F.
 Initial guess orbital symmetries:
       Occupied  (A') (A') (A') (A") (A") (A') (A') (A') (A') (A')
                 (A") (A") (A') (A') (A") (A') (A') (A") (A') (A')
                 (A") (A') (A") (A") (A')
       Virtual   (A") (A') (A') (A") (A') (A") (A') (A') (A') (A')
                 (A') (A") (A') (A") (A") (A') (A") (A') (A") (A")
                 (A') (A') (A') (A") (A') (A") (A') (A') (A") (A')
                 (A') (A') (A") (A') (A') (A') (A") (A") (A") (A")
                 (A') (A') (A") (A') (A') (A") (A') (A") (A") (A')
                 (A') (A") (A") (A') (A') (A') (A') (A') (A") (A')
                 (A') (A') (A") (A") (A') (A") (A') (A') (A") (A')
                 (A") (A") (A") (A') (A") (A') (A') (A") (A") (A')
                 (A') (A') (A") (A") (A') (A') (A') (A') (A') (A")
                 (A") (A") (A') (A") (A") (A') (A') (A") (A') (A")
                 (A') (A') (A") (A") (A') (A") (A') (A') (A") (A')
                 (A') (A") (A') (A") (A") (A') (A') (A') (A") (A")
                 (A") (A') (A') (A") (A') (A") (A') (A") (A') (A")
                 (A') (A") (A') (A") (A') (A') (A') (A") (A') (A')
                 (A") (A") (A") (A') (A") (A') (A') (A') (A') (A")
                 (A') (A') (A') (A") (A') (A") (A") (A") (A") (A')
                 (A') (A") (A') (A") (A') (A') (A") (A") (A") (A")
                 (A') (A') (A") (A') (A') (A") (A") (A') (A') (A")
                 (A') (A') (A") (A') (A") (A') (A") (A') (A') (A")
                 (A") (A") (A') (A') (A") (A') (A') (A") (A") (A')
                 (A') (A') (A") (A') (A") (A") (A') (A") (A') (A')
                 (A') (A") (A') (A") (A") (A') (A") (A') (A") (A')
                 (A') (A") (A") (A') (A") (A") (A') (A") (A') (A")
                 (A') (A') (A") (A') (A') (A') (A") (A") (A") (A')
                 (A') (A') (A") (A') (A") (A') (A') (A") (A') (A')
                 (A") (A') (A") (A') (A')
 The electronic state of the initial guess is 1-A'.
 Leave Link  401 at Fri Aug 27 21:25:29 2021, MaxMem= 17179869184 cpu:        41.1
 (Enter /public3/home/sc51754/softwares/g09e01/l502.exe)
 Closed shell SCF:
 Using DIIS extrapolation, IDIIS=  1040.
 Integral symmetry usage will be decided dynamically.
 Keep R1 ints in memory in symmetry-blocked form, NReq=2322273034.
 IVT=      348938 IEndB=      348938 NGot= 17179869184 MDV= 16792355177
 LenX= 16792355177 LenY= 16792252336
 Requested convergence on RMS density matrix=1.00D-08 within 128 cycles.
 Requested convergence on MAX density matrix=1.00D-06.
 Requested convergence on             energy=1.00D-06.
 No special actions if energy rises.
 FoFCou: FMM=F IPFlag=           0 FMFlag=           0 FMFlg1=           0
         NFxFlg=           0 DoJE=F BraDBF=F KetDBF=F FulRan=T
         wScrn=  0.000000 ICntrl=     600 IOpCl=  0 I1Cent=           0 NGrid=           0
         NMat0=    1 NMatS0=  39340 NMatT0=    0 NMatD0=    1 NMtDS0=    0 NMtDT0=    0
 Petite list used in FoFCou.
 Integral accuracy reduced to 1.0D-05 until final iterations.

 Cycle   1  Pass 0  IDiag  1:
 E= -323.467019270918    
 DIIS: error= 1.90D-02 at cycle   1 NSaved=   1.
 NSaved= 1 IEnMin= 1 EnMin= -323.467019270918     IErMin= 1 ErrMin= 1.90D-02
 ErrMax= 1.90D-02  0.00D+00 EMaxC= 1.00D-01 BMatC= 1.01D-01 BMatP= 1.01D-01
 IDIUse=3 WtCom= 8.10D-01 WtEn= 1.90D-01
 Coeff-Com:  0.100D+01
 Coeff-En:   0.100D+01
 Coeff:      0.100D+01
 Gap=     0.275 Goal=   None    Shift=    0.000
 GapD=    0.275 DampG=1.000 DampE=0.500 DampFc=0.5000 IDamp=-1.
 Damping current iteration by 5.00D-01
 RMSDP=1.91D-03 MaxDP=7.53D-02              OVMax= 2.43D-01

 Cycle   2  Pass 0  IDiag  1:
 E= -323.511860205274     Delta-E=       -0.044840934356 Rises=F Damp=T
 DIIS: error= 5.41D-03 at cycle   2 NSaved=   2.
 NSaved= 2 IEnMin= 2 EnMin= -323.511860205274     IErMin= 2 ErrMin= 5.41D-03
 ErrMax= 5.41D-03  0.00D+00 EMaxC= 1.00D-01 BMatC= 1.09D-02 BMatP= 1.01D-01
 IDIUse=3 WtCom= 9.46D-01 WtEn= 5.41D-02
 Coeff-Com:  0.620D-01 0.938D+00
 Coeff-En:   0.000D+00 0.100D+01
 Coeff:      0.586D-01 0.941D+00
 Gap=     0.399 Goal=   None    Shift=    0.000
 RMSDP=7.05D-04 MaxDP=2.29D-02 DE=-4.48D-02 OVMax= 1.18D-01

 Cycle   3  Pass 0  IDiag  1:
 E= -323.565881299775     Delta-E=       -0.054021094501 Rises=F Damp=F
 DIIS: error= 4.09D-03 at cycle   3 NSaved=   3.
 NSaved= 3 IEnMin= 3 EnMin= -323.565881299775     IErMin= 3 ErrMin= 4.09D-03
 ErrMax= 4.09D-03  0.00D+00 EMaxC= 1.00D-01 BMatC= 2.92D-03 BMatP= 1.09D-02
 IDIUse=3 WtCom= 9.59D-01 WtEn= 4.09D-02
 Coeff-Com: -0.390D-01 0.305D+00 0.734D+00
 Coeff-En:   0.000D+00 0.000D+00 0.100D+01
 Coeff:     -0.374D-01 0.292D+00 0.745D+00
 Gap=     0.383 Goal=   None    Shift=    0.000
 RMSDP=1.87D-04 MaxDP=9.12D-03 DE=-5.40D-02 OVMax= 3.03D-02

 Cycle   4  Pass 0  IDiag  1:
 E= -323.568391307694     Delta-E=       -0.002510007919 Rises=F Damp=F
 DIIS: error= 1.77D-03 at cycle   4 NSaved=   4.
 NSaved= 4 IEnMin= 4 EnMin= -323.568391307694     IErMin= 4 ErrMin= 1.77D-03
 ErrMax= 1.77D-03  0.00D+00 EMaxC= 1.00D-01 BMatC= 6.23D-04 BMatP= 2.92D-03
 IDIUse=3 WtCom= 9.82D-01 WtEn= 1.77D-02
 Coeff-Com: -0.967D-02-0.158D-02 0.307D+00 0.704D+00
 Coeff-En:   0.000D+00 0.000D+00 0.000D+00 0.100D+01
 Coeff:     -0.950D-02-0.155D-02 0.301D+00 0.710D+00
 Gap=     0.386 Goal=   None    Shift=    0.000
 RMSDP=1.07D-04 MaxDP=3.53D-03 DE=-2.51D-03 OVMax= 9.08D-03

 Cycle   5  Pass 0  IDiag  1:
 E= -323.569009788626     Delta-E=       -0.000618480932 Rises=F Damp=F
 DIIS: error= 5.67D-04 at cycle   5 NSaved=   5.
 NSaved= 5 IEnMin= 5 EnMin= -323.569009788626     IErMin= 5 ErrMin= 5.67D-04
 ErrMax= 5.67D-04  0.00D+00 EMaxC= 1.00D-01 BMatC= 6.31D-05 BMatP= 6.23D-04
 IDIUse=3 WtCom= 9.94D-01 WtEn= 5.67D-03
 Coeff-Com:  0.109D-02-0.391D-01 0.399D-01 0.248D+00 0.750D+00
 Coeff-En:   0.000D+00 0.000D+00 0.000D+00 0.000D+00 0.100D+01
 Coeff:      0.108D-02-0.389D-01 0.397D-01 0.247D+00 0.752D+00
 Gap=     0.387 Goal=   None    Shift=    0.000
 RMSDP=4.23D-05 MaxDP=1.67D-03 DE=-6.18D-04 OVMax= 4.45D-03

 Cycle   6  Pass 0  IDiag  1:
 E= -323.569109417743     Delta-E=       -0.000099629117 Rises=F Damp=F
 DIIS: error= 3.25D-04 at cycle   6 NSaved=   6.
 NSaved= 6 IEnMin= 6 EnMin= -323.569109417743     IErMin= 6 ErrMin= 3.25D-04
 ErrMax= 3.25D-04  0.00D+00 EMaxC= 1.00D-01 BMatC= 9.84D-06 BMatP= 6.31D-05
 IDIUse=3 WtCom= 9.97D-01 WtEn= 3.25D-03
 Coeff-Com:  0.367D-02-0.858D-02-0.504D-01-0.101D+00 0.201D+00 0.955D+00
 Coeff-En:   0.000D+00 0.000D+00 0.000D+00 0.000D+00 0.000D+00 0.100D+01
 Coeff:      0.365D-02-0.855D-02-0.502D-01-0.101D+00 0.201D+00 0.956D+00
 Gap=     0.387 Goal=   None    Shift=    0.000
 RMSDP=2.77D-05 MaxDP=8.73D-04 DE=-9.96D-05 OVMax= 4.65D-03

 Cycle   7  Pass 0  IDiag  1:
 E= -323.569140175387     Delta-E=       -0.000030757644 Rises=F Damp=F
 DIIS: error= 9.73D-05 at cycle   7 NSaved=   7.
 NSaved= 7 IEnMin= 7 EnMin= -323.569140175387     IErMin= 7 ErrMin= 9.73D-05
 ErrMax= 9.73D-05  0.00D+00 EMaxC= 1.00D-01 BMatC= 1.51D-06 BMatP= 9.84D-06
 IDIUse=1 WtCom= 1.00D+00 WtEn= 0.00D+00
 Coeff-Com:  0.142D-02 0.131D-02-0.318D-02-0.401D-01-0.112D+00 0.495D-01
 Coeff-Com:  0.110D+01
 Coeff:      0.142D-02 0.131D-02-0.318D-02-0.401D-01-0.112D+00 0.495D-01
 Coeff:      0.110D+01
 Gap=     0.387 Goal=   None    Shift=    0.000
 RMSDP=1.22D-05 MaxDP=3.67D-04 DE=-3.08D-05 OVMax= 1.93D-03

 Cycle   8  Pass 0  IDiag  1:
 E= -323.569145160555     Delta-E=       -0.000004985168 Rises=F Damp=F
 DIIS: error= 2.72D-05 at cycle   8 NSaved=   8.
 NSaved= 8 IEnMin= 8 EnMin= -323.569145160555     IErMin= 8 ErrMin= 2.72D-05
 ErrMax= 2.72D-05  0.00D+00 EMaxC= 1.00D-01 BMatC= 1.54D-07 BMatP= 1.51D-06
 IDIUse=1 WtCom= 1.00D+00 WtEn= 0.00D+00
 Coeff-Com:  0.323D-03 0.286D-03 0.576D-02 0.271D-02-0.283D-01-0.855D-01
 Coeff-Com:  0.917D-01 0.101D+01
 Coeff:      0.323D-03 0.286D-03 0.576D-02 0.271D-02-0.283D-01-0.855D-01
 Coeff:      0.917D-01 0.101D+01
 Gap=     0.387 Goal=   None    Shift=    0.000
 RMSDP=3.33D-06 MaxDP=8.66D-05 DE=-4.99D-06 OVMax= 4.87D-04

 Initial convergence to 1.0D-05 achieved.  Increase integral accuracy.
 Cycle   9  Pass 1  IDiag  1:
 E= -323.569012628499     Delta-E=        0.000132532056 Rises=F Damp=F
 DIIS: error= 5.05D-05 at cycle   1 NSaved=   1.
 NSaved= 1 IEnMin= 1 EnMin= -323.569012628499     IErMin= 1 ErrMin= 5.05D-05
 ErrMax= 5.05D-05  0.00D+00 EMaxC= 1.00D-01 BMatC= 1.99D-06 BMatP= 1.99D-06
 IDIUse=1 WtCom= 1.00D+00 WtEn= 0.00D+00
 Coeff-Com:  0.100D+01
 Coeff:      0.100D+01
 Gap=     0.387 Goal=   None    Shift=    0.000
 RMSDP=3.33D-06 MaxDP=8.66D-05 DE= 1.33D-04 OVMax= 1.21D-04

 Cycle  10  Pass 1  IDiag  1:
 E= -323.569013494416     Delta-E=       -0.000000865917 Rises=F Damp=F
 DIIS: error= 1.19D-05 at cycle   2 NSaved=   2.
 NSaved= 2 IEnMin= 2 EnMin= -323.569013494416     IErMin= 2 ErrMin= 1.19D-05
 ErrMax= 1.19D-05  0.00D+00 EMaxC= 1.00D-01 BMatC= 4.30D-08 BMatP= 1.99D-06
 IDIUse=1 WtCom= 1.00D+00 WtEn= 0.00D+00
 Coeff-Com: -0.338D-01 0.103D+01
 Coeff:     -0.338D-01 0.103D+01
 Gap=     0.387 Goal=   None    Shift=    0.000
 RMSDP=1.05D-06 MaxDP=4.21D-05 DE=-8.66D-07 OVMax= 1.21D-04

 Cycle  11  Pass 1  IDiag  1:
 E= -323.569013507985     Delta-E=       -0.000000013569 Rises=F Damp=F
 DIIS: error= 1.31D-05 at cycle   3 NSaved=   3.
 NSaved= 3 IEnMin= 3 EnMin= -323.569013507985     IErMin= 2 ErrMin= 1.19D-05
 ErrMax= 1.31D-05  0.00D+00 EMaxC= 1.00D-01 BMatC= 4.76D-08 BMatP= 4.30D-08
 IDIUse=1 WtCom= 1.00D+00 WtEn= 0.00D+00
 Coeff-Com: -0.385D-01 0.549D+00 0.490D+00
 Coeff:     -0.385D-01 0.549D+00 0.490D+00
 Gap=     0.387 Goal=   None    Shift=    0.000
 RMSDP=5.17D-07 MaxDP=2.15D-05 DE=-1.36D-08 OVMax= 4.24D-05

 Cycle  12  Pass 1  IDiag  1:
 E= -323.569013541897     Delta-E=       -0.000000033912 Rises=F Damp=F
 DIIS: error= 3.35D-06 at cycle   4 NSaved=   4.
 NSaved= 4 IEnMin= 4 EnMin= -323.569013541897     IErMin= 4 ErrMin= 3.35D-06
 ErrMax= 3.35D-06  0.00D+00 EMaxC= 1.00D-01 BMatC= 1.09D-09 BMatP= 4.30D-08
 IDIUse=1 WtCom= 1.00D+00 WtEn= 0.00D+00
 Coeff-Com: -0.106D-01 0.108D+00 0.117D+00 0.786D+00
 Coeff:     -0.106D-01 0.108D+00 0.117D+00 0.786D+00
 Gap=     0.387 Goal=   None    Shift=    0.000
 RMSDP=1.40D-07 MaxDP=7.73D-06 DE=-3.39D-08 OVMax= 2.73D-05

 Cycle  13  Pass 1  IDiag  1:
 E= -323.569013543531     Delta-E=       -0.000000001634 Rises=F Damp=F
 DIIS: error= 1.51D-06 at cycle   5 NSaved=   5.
 NSaved= 5 IEnMin= 5 EnMin= -323.569013543531     IErMin= 5 ErrMin= 1.51D-06
 ErrMax= 1.51D-06  0.00D+00 EMaxC= 1.00D-01 BMatC= 4.53D-10 BMatP= 1.09D-09
 IDIUse=1 WtCom= 1.00D+00 WtEn= 0.00D+00
 Coeff-Com:  0.545D-02-0.954D-01-0.105D+00 0.331D+00 0.864D+00
 Coeff:      0.545D-02-0.954D-01-0.105D+00 0.331D+00 0.864D+00
 Gap=     0.387 Goal=   None    Shift=    0.000
 RMSDP=1.35D-07 MaxDP=3.96D-06 DE=-1.63D-09 OVMax= 1.53D-05

 Cycle  14  Pass 1  IDiag  1:
 E= -323.569013544366     Delta-E=       -0.000000000835 Rises=F Damp=F
 DIIS: error= 5.94D-07 at cycle   6 NSaved=   6.
 NSaved= 6 IEnMin= 6 EnMin= -323.569013544366     IErMin= 6 ErrMin= 5.94D-07
 ErrMax= 5.94D-07  0.00D+00 EMaxC= 1.00D-01 BMatC= 2.75D-11 BMatP= 4.53D-10
 IDIUse=1 WtCom= 1.00D+00 WtEn= 0.00D+00
 Coeff-Com:  0.730D-03-0.296D-02-0.177D-01-0.976D-01-0.668D-01 0.118D+01
 Coeff:      0.730D-03-0.296D-02-0.177D-01-0.976D-01-0.668D-01 0.118D+01
 Gap=     0.387 Goal=   None    Shift=    0.000
 RMSDP=5.66D-08 MaxDP=1.51D-06 DE=-8.35D-10 OVMax= 1.06D-05

 Cycle  15  Pass 1  IDiag  1:
 E= -323.569013544486     Delta-E=       -0.000000000120 Rises=F Damp=F
 DIIS: error= 1.80D-07 at cycle   7 NSaved=   7.
 NSaved= 7 IEnMin= 7 EnMin= -323.569013544486     IErMin= 7 ErrMin= 1.80D-07
 ErrMax= 1.80D-07  0.00D+00 EMaxC= 1.00D-01 BMatC= 7.19D-12 BMatP= 2.75D-11
 IDIUse=1 WtCom= 1.00D+00 WtEn= 0.00D+00
 Coeff-Com: -0.523D-03 0.127D-01 0.605D-02-0.865D-01-0.153D+00 0.452D+00
 Coeff-Com:  0.769D+00
 Coeff:     -0.523D-03 0.127D-01 0.605D-02-0.865D-01-0.153D+00 0.452D+00
 Coeff:      0.769D+00
 Gap=     0.387 Goal=   None    Shift=    0.000
 RMSDP=1.97D-08 MaxDP=6.08D-07 DE=-1.20D-10 OVMax= 2.31D-06

 Cycle  16  Pass 1  IDiag  1:
 E= -323.569013544508     Delta-E=       -0.000000000022 Rises=F Damp=F
 DIIS: error= 7.51D-08 at cycle   8 NSaved=   8.
 NSaved= 8 IEnMin= 8 EnMin= -323.569013544508     IErMin= 8 ErrMin= 7.51D-08
 ErrMax= 7.51D-08  0.00D+00 EMaxC= 1.00D-01 BMatC= 5.02D-13 BMatP= 7.19D-12
 IDIUse=1 WtCom= 1.00D+00 WtEn= 0.00D+00
 Coeff-Com: -0.277D-03 0.402D-02 0.429D-02-0.670D-02-0.298D-01-0.700D-01
 Coeff-Com:  0.185D+00 0.914D+00
 Coeff:     -0.277D-03 0.402D-02 0.429D-02-0.670D-02-0.298D-01-0.700D-01
 Coeff:      0.185D+00 0.914D+00
 Gap=     0.387 Goal=   None    Shift=    0.000
 RMSDP=6.48D-09 MaxDP=2.23D-07 DE=-2.24D-11 OVMax= 1.28D-06

 SCF Done:  E(RwB97) =  -323.569013545     A.U. after   16 cycles
            NFock= 16  Conv=0.65D-08     -V/T= 2.0041
 KE= 3.222618004399D+02 PE=-1.301332571359D+03 EE= 3.822213185338D+02
 Leave Link  502 at Fri Aug 27 21:25:36 2021, MaxMem= 17179869184 cpu:       297.6
 (Enter /public3/home/sc51754/softwares/g09e01/l601.exe)
 Copying SCF densities to generalized density rwf, IOpCl= 0 IROHF=0.

 **********************************************************************

            Population analysis using the SCF density.

 **********************************************************************

 Orbital symmetries:
       Occupied  (A') (A') (A') (A") (A') (A") (A') (A') (A') (A")
                 (A') (A") (A') (A') (A") (A') (A") (A') (A') (A')
                 (A") (A') (A") (A") (A')
       Virtual   (A') (A") (A') (A") (A') (A") (A') (A') (A') (A")
                 (A') (A') (A') (A") (A") (A") (A') (A') (A') (A")
                 (A") (A') (A') (A") (A') (A') (A") (A') (A") (A')
                 (A') (A') (A") (A') (A') (A') (A") (A") (A") (A')
                 (A") (A') (A') (A") (A") (A') (A') (A") (A") (A')
                 (A') (A") (A') (A") (A') (A') (A') (A') (A") (A')
                 (A') (A") (A') (A") (A') (A") (A') (A") (A') (A")
                 (A') (A') (A") (A") (A") (A') (A') (A") (A") (A')
                 (A') (A") (A") (A') (A') (A') (A') (A') (A') (A")
                 (A") (A") (A') (A') (A") (A") (A') (A') (A") (A')
                 (A") (A') (A") (A") (A") (A') (A') (A') (A") (A')
                 (A') (A") (A') (A") (A') (A") (A') (A') (A") (A")
                 (A") (A') (A') (A") (A') (A") (A') (A") (A') (A')
                 (A") (A") (A') (A") (A') (A') (A') (A") (A') (A')
                 (A") (A") (A") (A') (A") (A') (A') (A') (A') (A")
                 (A') (A') (A") (A') (A") (A') (A") (A") (A') (A')
                 (A") (A") (A') (A") (A") (A') (A") (A') (A") (A")
                 (A') (A') (A") (A') (A') (A') (A") (A") (A') (A")
                 (A') (A') (A') (A") (A") (A') (A') (A") (A') (A")
                 (A") (A") (A') (A") (A') (A') (A') (A') (A") (A")
                 (A') (A') (A") (A') (A") (A") (A') (A") (A') (A')
                 (A') (A") (A') (A") (A") (A') (A") (A') (A") (A')
                 (A') (A") (A") (A") (A") (A') (A') (A") (A') (A")
                 (A') (A') (A") (A') (A') (A") (A') (A") (A") (A')
                 (A') (A") (A') (A') (A") (A') (A') (A") (A') (A')
                 (A") (A') (A") (A') (A')
 The electronic state is 1-A'.
 Alpha  occ. eigenvalues --  -18.94023 -14.30920 -10.20510 -10.20470 -10.20468
 Alpha  occ. eigenvalues --  -10.13800 -10.13799  -1.14890  -1.13166  -0.93923
 Alpha  occ. eigenvalues --   -0.93766  -0.78943  -0.76291  -0.72305  -0.63379
 Alpha  occ. eigenvalues --   -0.60762  -0.58112  -0.57216  -0.56489  -0.50342
 Alpha  occ. eigenvalues --   -0.49691  -0.48939  -0.39938  -0.34397  -0.32705
 Alpha virt. eigenvalues --    0.05998   0.06459   0.07148   0.10818   0.12642
 Alpha virt. eigenvalues --    0.14956   0.15511   0.20777   0.21836   0.23603
 Alpha virt. eigenvalues --    0.24416   0.24626   0.25224   0.27399   0.27798
 Alpha virt. eigenvalues --    0.31020   0.31770   0.32158   0.36611   0.36634
 Alpha virt. eigenvalues --    0.36649   0.38090   0.38937   0.39882   0.41213
 Alpha virt. eigenvalues --    0.42198   0.42253   0.45107   0.45689   0.49447
 Alpha virt. eigenvalues --    0.51523   0.54535   0.54857   0.54899   0.58811
 Alpha virt. eigenvalues --    0.58930   0.60540   0.64371   0.65450   0.67482
 Alpha virt. eigenvalues --    0.70209   0.70577   0.74968   0.75065   0.80051
 Alpha virt. eigenvalues --    0.80362   0.82906   0.85869   0.88955   0.91295
 Alpha virt. eigenvalues --    0.91556   0.95827   1.00841   1.01131   1.01622
 Alpha virt. eigenvalues --    1.06337   1.09267   1.09630   1.09805   1.17702
 Alpha virt. eigenvalues --    1.20447   1.21531   1.22315   1.23446   1.25538
 Alpha virt. eigenvalues --    1.27410   1.28699   1.30928   1.31353   1.33802
 Alpha virt. eigenvalues --    1.35219   1.37446   1.37448   1.41505   1.45637
 Alpha virt. eigenvalues --    1.45849   1.46390   1.53706   1.54311   1.56528
 Alpha virt. eigenvalues --    1.56570   1.57453   1.58248   1.58329   1.65660
 Alpha virt. eigenvalues --    1.67611   1.69577   1.74602   1.75461   1.76207
 Alpha virt. eigenvalues --    1.77766   1.78886   1.85444   1.87531   1.88485
 Alpha virt. eigenvalues --    1.89003   1.93602   1.94008   1.94029   2.01141
 Alpha virt. eigenvalues --    2.02259   2.05333   2.07252   2.12063   2.14670
 Alpha virt. eigenvalues --    2.15918   2.21269   2.24357   2.26827   2.29536
 Alpha virt. eigenvalues --    2.31932   2.32817   2.34978   2.39211   2.51609
 Alpha virt. eigenvalues --    2.52289   2.61855   2.62920   2.74207   2.91004
 Alpha virt. eigenvalues --    2.96787   3.02182   3.04416   3.06152   3.24288
 Alpha virt. eigenvalues --    3.26120   3.29830   3.30505   3.33581   3.34708
 Alpha virt. eigenvalues --    3.37317   3.39474   3.43502   3.45535   3.46002
 Alpha virt. eigenvalues --    3.53735   3.57168   3.61864   3.64060   3.65706
 Alpha virt. eigenvalues --    3.69120   3.72434   3.74213   3.75689   3.76743
 Alpha virt. eigenvalues --    3.79002   3.79960   3.87105   3.91989   3.98707
 Alpha virt. eigenvalues --    4.05458   4.05605   4.06053   4.07470   4.08852
 Alpha virt. eigenvalues --    4.11646   4.13535   4.13958   4.18868   4.19095
 Alpha virt. eigenvalues --    4.19404   4.22209   4.22336   4.25925   4.28460
 Alpha virt. eigenvalues --    4.28945   4.29513   4.30973   4.32509   4.33113
 Alpha virt. eigenvalues --    4.33911   4.36484   4.39395   4.40447   4.41087
 Alpha virt. eigenvalues --    4.43063   4.43170   4.44158   4.48620   4.48991
 Alpha virt. eigenvalues --    4.49689   4.52452   4.55445   4.56433   4.57387
 Alpha virt. eigenvalues --    4.57784   4.62958   4.63088   4.65050   4.66975
 Alpha virt. eigenvalues --    4.71319   4.71775   4.71805   4.76168   4.76920
 Alpha virt. eigenvalues --    4.81852   4.86577   4.87057   4.88123   4.89141
 Alpha virt. eigenvalues --    4.97865   5.03307   5.04304   5.04988   5.06584
 Alpha virt. eigenvalues --    5.09208   5.17274   5.20148   5.20969   5.28775
 Alpha virt. eigenvalues --    5.30078   5.35238   5.38355   5.38632   5.38809
 Alpha virt. eigenvalues --    5.43514   5.45064   5.53096   5.53902   5.55016
 Alpha virt. eigenvalues --    5.56879   5.59142   5.65763   5.69673   5.70594
 Alpha virt. eigenvalues --    5.71480   5.77365   5.79660   5.83733   5.88061
 Alpha virt. eigenvalues --    5.88773   6.00064   6.02806   6.05081   6.05129
 Alpha virt. eigenvalues --    6.19393   6.20359   6.24952   6.27821   6.34625
 Alpha virt. eigenvalues --    6.46529   6.59474   6.61243   6.61662   6.93253
 Alpha virt. eigenvalues --    6.99539   7.06027   7.29410   9.53542  12.43901
 Alpha virt. eigenvalues --   12.58844  15.33298  16.97113  18.41700  22.57541
          Condensed to atoms (all electrons):
               1          2          3          4          5          6
     1  C    4.619361   0.574824  -0.032310  -0.015714  -0.081029   0.377853
     2  C    0.574824   4.931879   0.412428  -0.046132  -0.015714  -0.070592
     3  C   -0.032310   0.412428   4.329587   0.412428  -0.032310  -0.011580
     4  C   -0.015714  -0.046132   0.412428   4.931879   0.574824  -0.070592
     5  C   -0.081029  -0.015714  -0.032310   0.574824   4.619361   0.377853
     6  N    0.377853  -0.070592  -0.011580  -0.070592   0.377853   6.370640
     7  H    0.429371  -0.022847   0.003270  -0.004583   0.004577  -0.038131
     8  H   -0.037899   0.446979  -0.028814   0.008583  -0.000089   0.002510
     9  H   -0.000089   0.008583  -0.028814   0.446979  -0.037899   0.002510
    10  H    0.004577  -0.004583   0.003270  -0.022847   0.429371  -0.038131
    11  O    0.007990  -0.085721   0.593719  -0.085721   0.007990   0.000871
    12  H   -0.028964   0.005388  -0.001023   0.005388  -0.028964   0.423574
               7          8          9         10         11         12
     1  C    0.429371  -0.037899  -0.000089   0.004577   0.007990  -0.028964
     2  C   -0.022847   0.446979   0.008583  -0.004583  -0.085721   0.005388
     3  C    0.003270  -0.028814  -0.028814   0.003270   0.593719  -0.001023
     4  C   -0.004583   0.008583   0.446979  -0.022847  -0.085721   0.005388
     5  C    0.004577  -0.000089  -0.037899   0.429371   0.007990  -0.028964
     6  N   -0.038131   0.002510   0.002510  -0.038131   0.000871   0.423574
     7  H    0.589844  -0.003666   0.000182  -0.000310  -0.000463  -0.006761
     8  H   -0.003666   0.558062   0.000159   0.000182   0.001943  -0.000282
     9  H    0.000182   0.000159   0.558062  -0.003666   0.001943  -0.000282
    10  H   -0.000310   0.000182  -0.003666   0.589844  -0.000463  -0.006761
    11  O   -0.000463   0.001943   0.001943  -0.000463   8.070553   0.000077
    12  H   -0.006761  -0.000282  -0.000282  -0.006761   0.000077   0.478017
 Mulliken charges:
               1
     1  C    0.182026
     2  C   -0.134492
     3  C    0.380148
     4  C   -0.134492
     5  C    0.182026
     6  N   -0.326784
     7  H    0.049517
     8  H    0.052331
     9  H    0.052331
    10  H    0.049517
    11  O   -0.512719
    12  H    0.160591
 Sum of Mulliken charges =  -0.00000
 Mulliken charges with hydrogens summed into heavy atoms:
               1
     1  C    0.231544
     2  C   -0.082162
     3  C    0.380148
     4  C   -0.082162
     5  C    0.231544
     6  N   -0.166193
    11  O   -0.512719
 Electronic spatial extent (au):  <R**2>=            641.5759
 Charge=             -0.0000 electrons
 Dipole moment (field-independent basis, Debye):
    X=              0.0013    Y=              7.1264    Z=              0.0000  Tot=              7.1264
 Quadrupole moment (field-independent basis, Debye-Ang):
   XX=            -43.4601   YY=            -42.7718   ZZ=            -34.5558
   XY=             -0.0055   XZ=              0.0000   YZ=              0.0000
 Traceless Quadrupole moment (field-independent basis, Debye-Ang):
   XX=             -3.1975   YY=             -2.5092   ZZ=              5.7067
   XY=             -0.0055   XZ=              0.0000   YZ=              0.0000
 Octapole moment (field-independent basis, Debye-Ang**2):
  XXX=             -0.0037  YYY=             59.2404  ZZZ=             -0.0000  XYY=              0.0024
  XXY=             -2.0183  XXZ=              0.0000  XZZ=              0.0093  YZZ=              4.5765
  YYZ=             -0.0000  XYZ=              0.0000
 Hexadecapole moment (field-independent basis, Debye-Ang**3):
 XXXX=            -48.0572 YYYY=           -499.4334 ZZZZ=           -263.3870 XXXY=             -0.0324
 XXXZ=             -0.0000 YYYX=             -0.0756 YYYZ=             -0.0000 ZZZX=             -0.0000
 ZZZY=              0.0000 XXYY=            -93.3765 XXZZ=            -65.2110 YYZZ=           -116.4259
 XXYZ=             -0.0000 YYXZ=              0.0000 ZZXY=             -0.0068
 N-N= 2.732804388411D+02 E-N=-1.301332572907D+03  KE= 3.222618004399D+02
 Symmetry A'   KE= 2.364045461731D+02
 Symmetry A"   KE= 8.585725426673D+01
 No NMR shielding tensors so no spin-rotation constants.
 Leave Link  601 at Fri Aug 27 21:25:38 2021, MaxMem= 17179869184 cpu:        86.7
 (Enter /public3/home/sc51754/softwares/g09e01/l701.exe)
 Compute integral first derivatives.
 ... and contract with generalized density number  0.
 Leave Link  701 at Fri Aug 27 21:25:39 2021, MaxMem= 17179869184 cpu:        56.9
 (Enter /public3/home/sc51754/softwares/g09e01/l702.exe)
 L702 exits ... SP integral derivatives will be done elsewhere.
 Leave Link  702 at Fri Aug 27 21:25:39 2021, MaxMem= 17179869184 cpu:         0.3
 (Enter /public3/home/sc51754/softwares/g09e01/l703.exe)
 Compute integral first derivatives, UseDBF=F ICtDFT=           0.
 Integral derivatives from FoFJK, PRISM(SPDF).
 Calling FoFJK, ICntrl=      2127 FMM=F ISym2X=1 I1Cent= 0 IOpClX= 0 NMat=1 NMatS=1 NMatT=0.
 FoFJK:  IHMeth= 1 ICntrl=    2127 DoSepK=T KAlg= 0 I1Cent=   0 FoldK=F
 IRaf=         1 NMat=   1 IRICut=       1 DoRegI=T DoRafI=F ISym2E= 1.
 FoFCou: FMM=F IPFlag=           0 FMFlag=      100000 FMFlg1=         800
         NFxFlg=           0 DoJE=F BraDBF=F KetDBF=F FulRan=T
         wScrn=  0.000000 ICntrl=    2527 IOpCl=  0 I1Cent=           0 NGrid=           0
         NMat0=    1 NMatS0=      1 NMatT0=    0 NMatD0=    1 NMtDS0=    0 NMtDT0=    0
 Petite list used in FoFCou.
 Leave Link  703 at Fri Aug 27 21:25:42 2021, MaxMem= 17179869184 cpu:       170.4
 (Enter /public3/home/sc51754/softwares/g09e01/l716.exe)
 Dipole        = 5.15895239D-04 2.80372234D+00 8.86536813D-16
 ***** Axes restored to original set *****
 -------------------------------------------------------------------
 Center     Atomic                   Forces (Hartrees/Bohr)
 Number     Number              X              Y              Z
 -------------------------------------------------------------------
      1        6          -0.000007918    0.008434631   -0.006459321
      2        6           0.000000583   -0.007335512    0.001013879
      3        6          -0.000014844    0.008514989    0.000000000
      4        6           0.000000583   -0.007335512   -0.001013879
      5        6          -0.000007918    0.008434631    0.006459321
      6        7           0.000004507   -0.000029558    0.000000000
      7        1           0.000014888    0.001117274   -0.000817537
      8        1           0.000006686   -0.000703143   -0.001010900
      9        1           0.000006686   -0.000703143    0.001010900
     10        1           0.000014888    0.001117274    0.000817537
     11        8          -0.000002155   -0.015582018   -0.000000000
     12        1          -0.000015988    0.004070087   -0.000000000
 -------------------------------------------------------------------
 Cartesian Forces:  Max     0.015582018 RMS     0.004327384
 Leave Link  716 at Fri Aug 27 21:25:42 2021, MaxMem= 17179869184 cpu:         0.5
 (Enter /public3/home/sc51754/softwares/g09e01/l103.exe)

 GradGradGradGradGradGradGradGradGradGradGradGradGradGradGradGradGradGrad
 Berny optimization.
 FormGI is forming the generalized inverse of G from B-inverse, IUseBI=4.
 Internal  Forces:  Max     0.015582018 RMS     0.003452488
 Search for a local minimum.
 Step number   1 out of a maximum of   64
 All quantities printed in internal units (Hartrees-Bohrs-Radians)
 RMS Force = .34525D-02 SwitMx=.10000D-02 MixMth= 1
 Mixed Optimization -- RFO/linear search
 Second derivative matrix not updated -- first step.
 ITU=  0
     Eigenvalues ---    0.01179   0.01465   0.01838   0.01956   0.02032
     Eigenvalues ---    0.02219   0.02234   0.02399   0.02441   0.16000
     Eigenvalues ---    0.16000   0.16000   0.16000   0.16000   0.22000
     Eigenvalues ---    0.22000   0.23391   0.25000   0.34645   0.35229
     Eigenvalues ---    0.35431   0.35431   0.35528   0.35528   0.46397
     Eigenvalues ---    0.47941   0.48075   0.51510   0.53792   0.89549
 RFO step:  Lambda=-1.11524563D-03 EMin= 1.17876314D-02
 Linear search not attempted -- first point.
 Iteration  1 RMS(Cart)=  0.00963398 RMS(Int)=  0.00001794
 Iteration  2 RMS(Cart)=  0.00001738 RMS(Int)=  0.00000334
 Iteration  3 RMS(Cart)=  0.00000000 RMS(Int)=  0.00000334
 ITry= 1 IFail=0 DXMaxC= 3.96D-02 DCOld= 1.00D+10 DXMaxT= 3.00D-01 DXLimC= 3.00D+00 Rises=F
 ClnCor:  largest displacement from symmetrization is 4.47D-12 for atom    10.
 Variable       Old X    -DE/DX   Delta X   Delta X   Delta X     New X
                                 (Linear)    (Quad)   (Total)
    R1        2.56220  -0.01152   0.00000  -0.02138  -0.02138   2.54082
    R2        2.59705  -0.00565   0.00000  -0.01170  -0.01169   2.58536
    R3        2.04981  -0.00131   0.00000  -0.00368  -0.00368   2.04613
    R4        2.77562  -0.00355   0.00000  -0.00923  -0.00923   2.76638
    R5        2.04825  -0.00122   0.00000  -0.00344  -0.00344   2.04482
    R6        2.77562  -0.00355   0.00000  -0.00923  -0.00923   2.76638
    R7        2.33142  -0.01558   0.00000  -0.01738  -0.01738   2.31404
    R8        2.56220  -0.01152   0.00000  -0.02138  -0.02138   2.54082
    R9        2.04825  -0.00122   0.00000  -0.00344  -0.00344   2.04482
   R10        2.59705  -0.00565   0.00000  -0.01170  -0.01169   2.58536
   R11        2.04981  -0.00131   0.00000  -0.00368  -0.00368   2.04613
   R12        1.90386  -0.00407   0.00000  -0.00875  -0.00875   1.89511
    A1        2.11471   0.00153   0.00000   0.00601   0.00602   2.12072
    A2        2.15142  -0.00123   0.00000  -0.00588  -0.00589   2.14553
    A3        2.01706  -0.00030   0.00000  -0.00013  -0.00013   2.01693
    A4        2.12519  -0.00205   0.00000  -0.00810  -0.00810   2.11709
    A5        2.09805   0.00089   0.00000   0.00322   0.00322   2.10127
    A6        2.05994   0.00116   0.00000   0.00488   0.00488   2.06482
    A7        1.98154   0.00138   0.00000   0.00761   0.00760   1.98914
    A8        2.15082  -0.00069   0.00000  -0.00380  -0.00380   2.14702
    A9        2.15082  -0.00069   0.00000  -0.00380  -0.00380   2.14702
   A10        2.12519  -0.00205   0.00000  -0.00810  -0.00810   2.11709
   A11        2.05994   0.00116   0.00000   0.00488   0.00488   2.06482
   A12        2.09805   0.00089   0.00000   0.00322   0.00322   2.10127
   A13        2.11471   0.00153   0.00000   0.00601   0.00602   2.12072
   A14        2.15142  -0.00123   0.00000  -0.00588  -0.00589   2.14553
   A15        2.01706  -0.00030   0.00000  -0.00013  -0.00013   2.01693
   A16        2.10503  -0.00033   0.00000  -0.00344  -0.00343   2.10160
   A17        2.08908   0.00016   0.00000   0.00172   0.00171   2.09079
   A18        2.08908   0.00016   0.00000   0.00172   0.00171   2.09079
    D1       -0.00015   0.00000   0.00000   0.00011   0.00011  -0.00005
    D2        3.14133   0.00000   0.00000   0.00021   0.00021   3.14154
    D3       -3.14143  -0.00000   0.00000  -0.00016  -0.00016  -3.14158
    D4        0.00006  -0.00000   0.00000  -0.00005  -0.00005   0.00001
    D5       -0.00035   0.00001   0.00000   0.00033   0.00033  -0.00002
    D6        3.14089   0.00000   0.00000   0.00014   0.00014   3.14103
    D7        3.14095   0.00001   0.00000   0.00057   0.00057   3.14152
    D8       -0.00100   0.00001   0.00000   0.00038   0.00038  -0.00062
    D9        0.00059  -0.00001   0.00000  -0.00049  -0.00049   0.00011
   D10       -3.14124   0.00000   0.00000   0.00016   0.00016  -3.14108
   D11       -3.14090  -0.00001   0.00000  -0.00059  -0.00059  -3.14149
   D12        0.00046   0.00000   0.00000   0.00006   0.00006   0.00051
   D13       -0.00059   0.00001   0.00000   0.00049   0.00049  -0.00011
   D14        3.14090   0.00001   0.00000   0.00059   0.00059   3.14149
   D15        3.14124  -0.00000   0.00000  -0.00016  -0.00016   3.14108
   D16       -0.00046  -0.00000   0.00000  -0.00006  -0.00006  -0.00051
   D17        0.00015  -0.00000   0.00000  -0.00011  -0.00011   0.00005
   D18        3.14143   0.00000   0.00000   0.00016   0.00016   3.14158
   D19       -3.14133  -0.00000   0.00000  -0.00021  -0.00021  -3.14154
   D20       -0.00006   0.00000   0.00000   0.00005   0.00005  -0.00001
   D21        0.00035  -0.00001   0.00000  -0.00033  -0.00033   0.00002
   D22       -3.14089  -0.00000   0.00000  -0.00014  -0.00014  -3.14103
   D23       -3.14095  -0.00001   0.00000  -0.00057  -0.00057  -3.14152
   D24        0.00100  -0.00001   0.00000  -0.00038  -0.00038   0.00062
         Item               Value     Threshold  Converged?
 Maximum Force            0.015582     0.000450     NO 
 RMS     Force            0.003452     0.000300     NO 
 Maximum Displacement     0.039570     0.001800     NO 
 RMS     Displacement     0.009641     0.001200     NO 
 Predicted change in Energy=-5.588992D-04
 Lowest energy point so far.  Saving SCF results.
 GradGradGradGradGradGradGradGradGradGradGradGradGradGradGradGradGradGrad

 Leave Link  103 at Fri Aug 27 21:25:42 2021, MaxMem= 17179869184 cpu:        18.3
 (Enter /public3/home/sc51754/softwares/g09e01/l202.exe)
                          Input orientation:                          
 ---------------------------------------------------------------------
 Center     Atomic      Atomic             Coordinates (Angstroms)
 Number     Number       Type             X           Y           Z
 ---------------------------------------------------------------------
      1          6           0       -0.000225   -1.041802    1.187279
      2          6           0       -0.000217    0.302141    1.227521
      3          6           0       -0.000141    1.099773    0.000000
      4          6           0       -0.000217    0.302141   -1.227521
      5          6           0       -0.000225   -1.041802   -1.187279
      6          7           0       -0.000217   -1.721585   -0.000000
      7          1           0       -0.000291   -1.657341    2.078059
      8          1           0       -0.000270    0.821431    2.176845
      9          1           0       -0.000270    0.821431   -2.176845
     10          1           0       -0.000291   -1.657341   -2.078059
     11          8           0        0.000395    2.324308    0.000000
     12          1           0        0.000267   -2.724434   -0.000000
 ---------------------------------------------------------------------
                    Distance matrix (angstroms):
                    1          2          3          4          5
     1  C    0.000000
     2  C    1.344546   0.000000
     3  C    2.448668   1.463907   0.000000
     4  C    2.763592   2.455041   1.463907   0.000000
     5  C    2.374558   2.763592   2.448668   1.344546   0.000000
     6  N    1.368114   2.366912   2.821358   2.366912   1.368114
     7  H    1.082764   2.136115   3.452537   3.842711   3.322849
     8  H    2.109710   1.082071   2.194568   3.443743   3.845643
     9  H    3.845643   3.443743   2.194568   1.082071   2.109710
    10  H    3.322849   3.842711   3.452537   2.136115   1.082764
    11  O    3.569360   2.365580   1.224536   2.365580   3.569360
    12  H    2.059340   3.266032   3.824207   3.266032   2.059340
                    6          7          8          9         10
     6  N    0.000000
     7  H    2.079052   0.000000
     8  H    3.347474   2.480740   0.000000
     9  H    3.347474   4.924279   4.353690   0.000000
    10  H    2.079052   4.156119   4.924279   2.480740   0.000000
    11  O    4.045893   4.491310   2.645240   2.645240   4.491310
    12  H    1.002849   2.336026   4.160746   4.160746   2.336026
                   11         12
    11  O    0.000000
    12  H    5.048742   0.000000
 Stoichiometry    C5H5NO
 Framework group  CS[SG(CHNO),X(C4H4)]
 Deg. of freedom    17
 Full point group                 CS      NOp   2
 RotChk:  IX=3 Diff= 8.35D-06
 Largest Abelian subgroup         CS      NOp   2
 Largest concise Abelian subgroup CS      NOp   2
                         Standard orientation:                         
 ---------------------------------------------------------------------
 Center     Atomic      Atomic             Coordinates (Angstroms)
 Number     Number       Type             X           Y           Z
 ---------------------------------------------------------------------
      1          6           0        0.000112    1.039199    1.187279
      2          6           0        0.000112   -0.304745    1.227521
      3          6           0        0.000040   -1.102376   -0.000000
      4          6           0        0.000112   -0.304745   -1.227521
      5          6           0        0.000112    1.039199   -1.187279
      6          7           0        0.000099    1.718981    0.000000
      7          1           0        0.000174    1.654738    2.078059
      8          1           0        0.000167   -0.824034    2.176845
      9          1           0        0.000167   -0.824034   -2.176845
     10          1           0        0.000174    1.654738   -2.078059
     11          8           0       -0.000489   -2.326912   -0.000000
     12          1           0       -0.000390    2.721830    0.000000
 ---------------------------------------------------------------------
 Rotational constants (GHZ):      5.7266580      2.7337107      1.8503953
 Leave Link  202 at Fri Aug 27 21:25:43 2021, MaxMem= 17179869184 cpu:         4.7
 (Enter /public3/home/sc51754/softwares/g09e01/l301.exe)
 Basis read from rwf:  (5D, 7F)
 No pseudopotential information found on rwf file.
 There are   183 symmetry adapted cartesian basis functions of A'  symmetry.
 There are   137 symmetry adapted cartesian basis functions of A"  symmetry.
 There are   158 symmetry adapted basis functions of A'  symmetry.
 There are   122 symmetry adapted basis functions of A"  symmetry.
   280 basis functions,   475 primitive gaussians,   320 cartesian basis functions
    25 alpha electrons       25 beta electrons
       nuclear repulsion energy       274.7744587119 Hartrees.
 IExCor= 4437 DFT=T Ex+Corr=wB97 ExCW=0 ScaHFX=  1.000000
 ScaDFX=  1.000000  1.000000  1.000000  1.000000 ScalE2=  1.000000  1.000000
 IRadAn=      0 IRanWt=     -1 IRanGd=            0 ICorTp=0 IEmpDi=  4
  HFx wShort=  0.000000 wLong=  0.400000 cFull=  0.000000 cShort=  0.000000 cLong=  1.000000
  DFx wShort=  0.000000 wLong=  0.400000 cFull=  0.000000 cShort=  0.000000 cLong=  1.000000
 NAtoms=   12 NActive=   12 NUniq=    8 SFac= 2.25D+00 NAtFMM=   60 NAOKFM=F Big=F
 Integral buffers will be    131072 words long.
 Raffenetti 2 integral format.
 Two-electron integral symmetry is turned on.
 No density basis found on file   724.
 Leave Link  301 at Fri Aug 27 21:25:43 2021, MaxMem= 17179869184 cpu:         1.0
 (Enter /public3/home/sc51754/softwares/g09e01/l302.exe)
 NPDir=0 NMtPBC=     1 NCelOv=     1 NCel=       1 NClECP=     1 NCelD=      1
         NCelK=      1 NCelE2=     1 NClLst=     1 CellRange=     0.0.
 One-electron integrals computed using PRISM.
 One-electron integral symmetry used in STVInt
 NBasis=   280 RedAO= T EigKep=  1.76D-04  NBF=   158   122
 NBsUse=   280 1.00D-06 EigRej= -1.00D+00 NBFU=   158   122
 Precomputing XC quadrature grid using
 IXCGrd= 4 IRadAn=           0 IRanWt=          -1 IRanGd=           0 AccXCQ= 0.00D+00.
 Generated NRdTot=       0 NPtTot=           0 NUsed=           0 NTot=          32
 NSgBfM=   320   320   320   320   320 MxSgAt=    12 MxSgA2=    12.
 Leave Link  302 at Fri Aug 27 21:25:44 2021, MaxMem= 17179869184 cpu:        45.2
 (Enter /public3/home/sc51754/softwares/g09e01/l303.exe)
 DipDrv:  MaxL=1.
 Leave Link  303 at Fri Aug 27 21:25:44 2021, MaxMem= 17179869184 cpu:        12.8
 (Enter /public3/home/sc51754/softwares/g09e01/l401.exe)
 Initial guess from the checkpoint file:  "4PY_wB97_PC2_OPT_FREQ.chk"
 B after Tr=     0.000000    0.000000    0.000000
         Rot=    1.000000   -0.000000   -0.000000   -0.000015 Ang=  -0.00 deg.
 Guess basis will be translated and rotated to current coordinates.
 JPrj=2 DoOrth=T DoCkMO=T.
 Initial guess orbital symmetries:
       Occupied  (A') (A') (A') (A") (A') (A") (A') (A') (A') (A")
                 (A') (A") (A') (A') (A") (A') (A") (A') (A') (A')
                 (A") (A') (A") (A") (A')
       Virtual   (A') (A') (A') (A') (A') (A') (A') (A') (A') (A')
                 (A') (A') (A') (A') (A') (A') (A') (A') (A') (A')
                 (A') (A') (A') (A') (A') (A') (A') (A') (A') (A')
                 (A') (A') (A') (A') (A') (A') (A') (A') (A') (A')
                 (A') (A') (A') (A') (A') (A') (A') (A') (A') (A')
                 (A') (A') (A') (A') (A') (A') (A') (A') (A') (A')
                 (A') (A') (A') (A') (A') (A') (A') (A') (A') (A')
                 (A') (A') (A') (A') (A') (A') (A') (A') (A') (A')
                 (A') (A') (A') (A') (A') (A') (A') (A') (A') (A')
                 (A') (A') (A') (A') (A') (A') (A') (A') (A') (A')
                 (A') (A') (A') (A') (A') (A') (A') (A') (A') (A')
                 (A') (A') (A') (A') (A') (A') (A') (A') (A') (A')
                 (A') (A') (A') (A') (A') (A') (A') (A') (A') (A')
                 (A') (A') (A') (A') (A') (A') (A') (A') (A') (A')
                 (A') (A') (A") (A") (A") (A") (A") (A") (A") (A")
                 (A") (A") (A") (A") (A") (A") (A") (A") (A") (A")
                 (A") (A") (A") (A") (A") (A") (A") (A") (A") (A")
                 (A") (A") (A") (A") (A") (A") (A") (A") (A") (A")
                 (A") (A") (A") (A") (A") (A") (A") (A") (A") (A")
                 (A") (A") (A") (A") (A") (A") (A") (A") (A") (A")
                 (A") (A") (A") (A") (A") (A") (A") (A") (A") (A")
                 (A") (A") (A") (A") (A") (A") (A") (A") (A") (A")
                 (A") (A") (A") (A") (A") (A") (A") (A") (A") (A")
                 (A") (A") (A") (A") (A") (A") (A") (A") (A") (A")
                 (A") (A") (A") (A") (A") (A") (A") (A") (A") (A")
                 (A") (A") (A") (A") (A")
 The electronic state of the initial guess is 1-A'.
 Generating alternative initial guess.
 ExpMin= 7.41D-02 ExpMax= 1.48D+04 ExpMxC= 5.05D+02 IAcc=2 IRadAn=         4 AccDes= 0.00D+00
 Harris functional with IExCor= 4437 and IRadAn=       4 diagonalized for initial guess.
 HarFok:  IExCor= 4437 AccDes= 0.00D+00 IRadAn=         4 IDoV= 1 UseB2=F ITyADJ=14
 ICtDFT=  3500011 ScaDFX=  1.000000  1.000000  1.000000  1.000000
 FoFCou: FMM=F IPFlag=           0 FMFlag=      100000 FMFlg1=           0
         NFxFlg=           0 DoJE=T BraDBF=F KetDBF=T FulRan=T
         wScrn=  0.000000 ICntrl=     500 IOpCl=  0 I1Cent=   200000004 NGrid=           0
         NMat0=    1 NMatS0=      1 NMatT0=    0 NMatD0=    1 NMtDS0=    0 NMtDT0=    0
 Petite list used in FoFCou.
 Harris En= -313.591012496778    
 Leave Link  401 at Fri Aug 27 21:25:46 2021, MaxMem= 17179869184 cpu:        85.1
 (Enter /public3/home/sc51754/softwares/g09e01/l502.exe)
 Closed shell SCF:
 Using DIIS extrapolation, IDIIS=  1040.
 Integral symmetry usage will be decided dynamically.
 Keep R1 ints in memory in symmetry-blocked form, NReq=2322273034.
 IVT=      348938 IEndB=      348938 NGot= 17179869184 MDV= 16792355177
 LenX= 16792355177 LenY= 16792252336
 Requested convergence on RMS density matrix=1.00D-08 within 128 cycles.
 Requested convergence on MAX density matrix=1.00D-06.
 Requested convergence on             energy=1.00D-06.
 No special actions if energy rises.
 FoFCou: FMM=F IPFlag=           0 FMFlag=           0 FMFlg1=           0
         NFxFlg=           0 DoJE=F BraDBF=F KetDBF=F FulRan=T
         wScrn=  0.000000 ICntrl=     600 IOpCl=  0 I1Cent=           0 NGrid=           0
         NMat0=    1 NMatS0=  39340 NMatT0=    0 NMatD0=    1 NMtDS0=    0 NMtDT0=    0
 Petite list used in FoFCou.
 Integral accuracy reduced to 1.0D-05 until final iterations.

 Cycle   1  Pass 0  IDiag  1:
 E= -323.569532935865    
 DIIS: error= 6.46D-04 at cycle   1 NSaved=   1.
 NSaved= 1 IEnMin= 1 EnMin= -323.569532935865     IErMin= 1 ErrMin= 6.46D-04
 ErrMax= 6.46D-04  0.00D+00 EMaxC= 1.00D-01 BMatC= 1.86D-04 BMatP= 1.86D-04
 IDIUse=3 WtCom= 9.94D-01 WtEn= 6.46D-03
 Coeff-Com:  0.100D+01
 Coeff-En:   0.100D+01
 Coeff:      0.100D+01
 Gap=     0.788 Goal=   None    Shift=    0.000
 RMSDP=4.64D-05 MaxDP=1.03D-03              OVMax= 2.41D-03

 Cycle   2  Pass 0  IDiag  1:
 E= -323.569671761565     Delta-E=       -0.000138825700 Rises=F Damp=F
 DIIS: error= 2.83D-04 at cycle   2 NSaved=   2.
 NSaved= 2 IEnMin= 2 EnMin= -323.569671761565     IErMin= 2 ErrMin= 2.83D-04
 ErrMax= 2.83D-04  0.00D+00 EMaxC= 1.00D-01 BMatC= 1.39D-05 BMatP= 1.86D-04
 IDIUse=3 WtCom= 9.97D-01 WtEn= 2.83D-03
 Coeff-Com:  0.986D-01 0.901D+00
 Coeff-En:   0.000D+00 0.100D+01
 Coeff:      0.983D-01 0.902D+00
 Gap=     0.391 Goal=   None    Shift=    0.000
 RMSDP=1.69D-05 MaxDP=7.82D-04 DE=-1.39D-04 OVMax= 8.95D-04

 Cycle   3  Pass 0  IDiag  1:
 E= -323.569683123823     Delta-E=       -0.000011362258 Rises=F Damp=F
 DIIS: error= 1.39D-04 at cycle   3 NSaved=   3.
 NSaved= 3 IEnMin= 3 EnMin= -323.569683123823     IErMin= 3 ErrMin= 1.39D-04
 ErrMax= 1.39D-04  0.00D+00 EMaxC= 1.00D-01 BMatC= 3.72D-06 BMatP= 1.39D-05
 IDIUse=3 WtCom= 9.99D-01 WtEn= 1.39D-03
 Coeff-Com: -0.306D-01 0.301D+00 0.729D+00
 Coeff-En:   0.000D+00 0.000D+00 0.100D+01
 Coeff:     -0.306D-01 0.301D+00 0.730D+00
 Gap=     0.391 Goal=   None    Shift=    0.000
 RMSDP=5.61D-06 MaxDP=2.63D-04 DE=-1.14D-05 OVMax= 8.88D-04

 Initial convergence to 1.0D-05 achieved.  Increase integral accuracy.
 Cycle   4  Pass 1  IDiag  1:
 E= -323.569532058236     Delta-E=        0.000151065587 Rises=F Damp=F
 DIIS: error= 6.03D-05 at cycle   1 NSaved=   1.
 NSaved= 1 IEnMin= 1 EnMin= -323.569532058236     IErMin= 1 ErrMin= 6.03D-05
 ErrMax= 6.03D-05  0.00D+00 EMaxC= 1.00D-01 BMatC= 2.62D-06 BMatP= 2.62D-06
 IDIUse=1 WtCom= 1.00D+00 WtEn= 0.00D+00
 Coeff-Com:  0.100D+01
 Coeff:      0.100D+01
 Gap=     0.391 Goal=   None    Shift=    0.000
 RMSDP=5.61D-06 MaxDP=2.63D-04 DE= 1.51D-04 OVMax= 3.10D-04

 Cycle   5  Pass 1  IDiag  1:
 E= -323.569532857698     Delta-E=       -0.000000799462 Rises=F Damp=F
 DIIS: error= 7.45D-05 at cycle   2 NSaved=   2.
 NSaved= 2 IEnMin= 2 EnMin= -323.569532857698     IErMin= 1 ErrMin= 6.03D-05
 ErrMax= 7.45D-05  0.00D+00 EMaxC= 1.00D-01 BMatC= 9.60D-07 BMatP= 2.62D-06
 IDIUse=1 WtCom= 1.00D+00 WtEn= 0.00D+00
 Coeff-Com:  0.325D+00 0.675D+00
 Coeff:      0.325D+00 0.675D+00
 Gap=     0.391 Goal=   None    Shift=    0.000
 RMSDP=3.37D-06 MaxDP=1.95D-04 DE=-7.99D-07 OVMax= 5.14D-04

 Cycle   6  Pass 1  IDiag  1:
 E= -323.569533379945     Delta-E=       -0.000000522247 Rises=F Damp=F
 DIIS: error= 4.65D-05 at cycle   3 NSaved=   3.
 NSaved= 3 IEnMin= 3 EnMin= -323.569533379945     IErMin= 3 ErrMin= 4.65D-05
 ErrMax= 4.65D-05  0.00D+00 EMaxC= 1.00D-01 BMatC= 3.32D-07 BMatP= 9.60D-07
 IDIUse=1 WtCom= 1.00D+00 WtEn= 0.00D+00
 Coeff-Com: -0.446D-01 0.363D+00 0.682D+00
 Coeff:     -0.446D-01 0.363D+00 0.682D+00
 Gap=     0.391 Goal=   None    Shift=    0.000
 RMSDP=1.67D-06 MaxDP=6.41D-05 DE=-5.22D-07 OVMax= 1.09D-04

 Cycle   7  Pass 1  IDiag  1:
 E= -323.569533620769     Delta-E=       -0.000000240824 Rises=F Damp=F
 DIIS: error= 5.18D-06 at cycle   4 NSaved=   4.
 NSaved= 4 IEnMin= 4 EnMin= -323.569533620769     IErMin= 4 ErrMin= 5.18D-06
 ErrMax= 5.18D-06  0.00D+00 EMaxC= 1.00D-01 BMatC= 4.93D-09 BMatP= 3.32D-07
 IDIUse=1 WtCom= 1.00D+00 WtEn= 0.00D+00
 Coeff-Com: -0.206D-01 0.117D+00 0.212D+00 0.692D+00
 Coeff:     -0.206D-01 0.117D+00 0.212D+00 0.692D+00
 Gap=     0.391 Goal=   None    Shift=    0.000
 RMSDP=2.68D-07 MaxDP=1.63D-05 DE=-2.41D-07 OVMax= 3.45D-05

 Cycle   8  Pass 1  IDiag  1:
 E= -323.569533627703     Delta-E=       -0.000000006934 Rises=F Damp=F
 DIIS: error= 2.95D-06 at cycle   5 NSaved=   5.
 NSaved= 5 IEnMin= 5 EnMin= -323.569533627703     IErMin= 5 ErrMin= 2.95D-06
 ErrMax= 2.95D-06  0.00D+00 EMaxC= 1.00D-01 BMatC= 1.42D-09 BMatP= 4.93D-09
 IDIUse=1 WtCom= 1.00D+00 WtEn= 0.00D+00
 Coeff-Com:  0.931D-02-0.862D-01-0.194D+00 0.202D+00 0.107D+01
 Coeff:      0.931D-02-0.862D-01-0.194D+00 0.202D+00 0.107D+01
 Gap=     0.391 Goal=   None    Shift=    0.000
 RMSDP=3.34D-07 MaxDP=1.02D-05 DE=-6.93D-09 OVMax= 5.15D-05

 Cycle   9  Pass 1  IDiag  1:
 E= -323.569533631580     Delta-E=       -0.000000003876 Rises=F Damp=F
 DIIS: error= 9.44D-07 at cycle   6 NSaved=   6.
 NSaved= 6 IEnMin= 6 EnMin= -323.569533631580     IErMin= 6 ErrMin= 9.44D-07
 ErrMax= 9.44D-07  0.00D+00 EMaxC= 1.00D-01 BMatC= 1.24D-10 BMatP= 1.42D-09
 IDIUse=1 WtCom= 1.00D+00 WtEn= 0.00D+00
 Coeff-Com:  0.346D-02-0.228D-01-0.565D-01-0.429D-01 0.192D+00 0.927D+00
 Coeff:      0.346D-02-0.228D-01-0.565D-01-0.429D-01 0.192D+00 0.927D+00
 Gap=     0.391 Goal=   None    Shift=    0.000
 RMSDP=9.72D-08 MaxDP=2.85D-06 DE=-3.88D-09 OVMax= 1.28D-05

 Cycle  10  Pass 1  IDiag  1:
 E= -323.569533631951     Delta-E=       -0.000000000371 Rises=F Damp=F
 DIIS: error= 3.86D-07 at cycle   7 NSaved=   7.
 NSaved= 7 IEnMin= 7 EnMin= -323.569533631951     IErMin= 7 ErrMin= 3.86D-07
[...]
 ITry= 1 IFail=0 DXMaxC= 5.49D-04 DCOld= 1.00D+10 DXMaxT= 3.00D-01 DXLimC= 3.00D+00 Rises=F
 ClnCor:  largest displacement from symmetrization is 6.55D-10 for atom    10.
 Variable       Old X    -DE/DX   Delta X   Delta X   Delta X     New X
                                 (Linear)    (Quad)   (Total)
    R1        2.54243  -0.00001   0.00000   0.00001   0.00001   2.54244
    R2        2.58628  -0.00002   0.00000  -0.00004  -0.00004   2.58624
    R3        2.04727  -0.00003   0.00000  -0.00008  -0.00008   2.04719
    R4        2.77147  -0.00008   0.00000  -0.00028  -0.00028   2.77120
    R5        2.04457   0.00001   0.00000   0.00002   0.00002   2.04459
    R6        2.77147  -0.00008   0.00000  -0.00028  -0.00028   2.77120
    R7        2.31232   0.00004   0.00000   0.00010   0.00010   2.31242
    R8        2.54243  -0.00001   0.00000   0.00001   0.00001   2.54244
    R9        2.04457   0.00001   0.00000   0.00002   0.00002   2.04459
   R10        2.58628  -0.00002   0.00000  -0.00004  -0.00004   2.58624
   R11        2.04727  -0.00003   0.00000  -0.00008  -0.00008   2.04719
   R12        1.89511  -0.00000   0.00000   0.00000   0.00000   1.89512
    A1        2.12263  -0.00001   0.00000  -0.00008  -0.00008   2.12256
    A2        2.14368   0.00002   0.00000   0.00015   0.00015   2.14383
    A3        2.01688  -0.00001   0.00000  -0.00008  -0.00008   2.01680
    A4        2.11741   0.00001   0.00000   0.00002   0.00002   2.11743
    A5        2.10325  -0.00001   0.00000  -0.00011  -0.00011   2.10315
    A6        2.06253   0.00001   0.00000   0.00008   0.00008   2.06261
    A7        1.98648   0.00002   0.00000   0.00008   0.00008   1.98656
    A8        2.14835  -0.00001   0.00000  -0.00004  -0.00004   2.14831
    A9        2.14835  -0.00001   0.00000  -0.00004  -0.00004   2.14831
   A10        2.11741   0.00001   0.00000   0.00002   0.00002   2.11743
   A11        2.06253   0.00001   0.00000   0.00008   0.00008   2.06261
   A12        2.10325  -0.00001   0.00000  -0.00011  -0.00011   2.10315
   A13        2.12263  -0.00001   0.00000  -0.00008  -0.00008   2.12256
   A14        2.14368   0.00002   0.00000   0.00015   0.00015   2.14383
   A15        2.01688  -0.00001   0.00000  -0.00008  -0.00008   2.01680
   A16        2.09981  -0.00000   0.00000   0.00003   0.00003   2.09984
   A17        2.09169   0.00000   0.00000  -0.00001  -0.00001   2.09167
   A18        2.09169   0.00000   0.00000  -0.00001  -0.00001   2.09167
    D1       -0.00018   0.00001   0.00000   0.00018   0.00018   0.00000
    D2        3.14150   0.00000   0.00000   0.00010   0.00010   3.14159
    D3        3.14147   0.00001   0.00000   0.00013   0.00013  -3.14159
    D4       -0.00004   0.00000   0.00000   0.00004   0.00004  -0.00000
    D5       -0.00001   0.00000   0.00000   0.00001   0.00001   0.00000
    D6        3.14142   0.00000   0.00000   0.00017   0.00017   3.14159
    D7        3.14153   0.00000   0.00000   0.00006   0.00006   3.14159
    D8       -0.00023   0.00000   0.00000   0.00022   0.00022  -0.00000
    D9        0.00035  -0.00002   0.00000  -0.00035  -0.00035  -0.00000
   D10        3.14113   0.00002   0.00000   0.00046   0.00046   3.14159
   D11       -3.14133  -0.00001   0.00000  -0.00026  -0.00026  -3.14159
   D12       -0.00055   0.00002   0.00000   0.00055   0.00055  -0.00000
   D13       -0.00035   0.00002   0.00000   0.00035   0.00035   0.00000
   D14        3.14133   0.00001   0.00000   0.00026   0.00026   3.14159
   D15       -3.14113  -0.00002   0.00000  -0.00046  -0.00046  -3.14159
   D16        0.00055  -0.00002   0.00000  -0.00055  -0.00055   0.00000
   D17        0.00018  -0.00001   0.00000  -0.00018  -0.00018  -0.00000
   D18       -3.14147  -0.00001   0.00000  -0.00013  -0.00013   3.14159
   D19       -3.14150  -0.00000   0.00000  -0.00010  -0.00010  -3.14159
   D20        0.00004  -0.00000   0.00000  -0.00004  -0.00004   0.00000
   D21        0.00001  -0.00000   0.00000  -0.00001  -0.00001  -0.00000
   D22       -3.14142  -0.00000   0.00000  -0.00017  -0.00017  -3.14159
   D23       -3.14153  -0.00000   0.00000  -0.00006  -0.00006  -3.14159
   D24        0.00023  -0.00000   0.00000  -0.00022  -0.00022   0.00000
         Item               Value     Threshold  Converged?
 Maximum Force            0.000082     0.000450     YES
 RMS     Force            0.000021     0.000300     YES
 Maximum Displacement     0.000549     0.001800     YES
 RMS     Displacement     0.000116     0.001200     YES
 Predicted change in Energy=-7.178542D-08
 Optimization completed.
    -- Stationary point found.
                           ----------------------------
                           !   Optimized Parameters   !
                           ! (Angstroms and Degrees)  !
 --------------------------                            --------------------------
 ! Name  Definition              Value          Derivative Info.                !
 --------------------------------------------------------------------------------
 ! R1    R(1,2)                  1.3454         -DE/DX =    0.0                 !
 ! R2    R(1,6)                  1.3686         -DE/DX =    0.0                 !
 ! R3    R(1,7)                  1.0834         -DE/DX =    0.0                 !
 ! R4    R(2,3)                  1.4666         -DE/DX =   -0.0001              !
 ! R5    R(2,8)                  1.0819         -DE/DX =    0.0                 !
 ! R6    R(3,4)                  1.4666         -DE/DX =   -0.0001              !
 ! R7    R(3,11)                 1.2236         -DE/DX =    0.0                 !
 ! R8    R(4,5)                  1.3454         -DE/DX =    0.0                 !
 ! R9    R(4,9)                  1.0819         -DE/DX =    0.0                 !
 ! R10   R(5,6)                  1.3686         -DE/DX =    0.0                 !
 ! R11   R(5,10)                 1.0834         -DE/DX =    0.0                 !
 ! R12   R(6,12)                 1.0029         -DE/DX =    0.0                 !
 ! A1    A(2,1,6)              121.6179         -DE/DX =    0.0                 !
 ! A2    A(2,1,7)              122.8237         -DE/DX =    0.0                 !
 ! A3    A(6,1,7)              115.5585         -DE/DX =    0.0                 !
 ! A4    A(1,2,3)              121.3185         -DE/DX =    0.0                 !
 ! A5    A(1,2,8)              120.5075         -DE/DX =    0.0                 !
 ! A6    A(3,2,8)              118.174          -DE/DX =    0.0                 !
 ! A7    A(2,3,4)              113.817          -DE/DX =    0.0                 !
 ! A8    A(2,3,11)             123.0915         -DE/DX =    0.0                 !
 ! A9    A(4,3,11)             123.0915         -DE/DX =    0.0                 !
 ! A10   A(3,4,5)              121.3185         -DE/DX =    0.0                 !
 ! A11   A(3,4,9)              118.174          -DE/DX =    0.0                 !
 ! A12   A(5,4,9)              120.5075         -DE/DX =    0.0                 !
 ! A13   A(4,5,6)              121.6179         -DE/DX =    0.0                 !
 ! A14   A(4,5,10)             122.8237         -DE/DX =    0.0                 !
 ! A15   A(6,5,10)             115.5585         -DE/DX =    0.0                 !
 ! A16   A(1,6,5)              120.3103         -DE/DX =    0.0                 !
 ! A17   A(1,6,12)             119.8449         -DE/DX =    0.0                 !
 ! A18   A(5,6,12)             119.8449         -DE/DX =    0.0                 !
 ! D1    D(6,1,2,3)             -0.0105         -DE/DX =    0.0                 !
 ! D2    D(6,1,2,8)            179.9945         -DE/DX =    0.0                 !
 ! D3    D(7,1,2,3)           -180.0072         -DE/DX =    0.0                 !
 ! D4    D(7,1,2,8)             -0.0023         -DE/DX =    0.0                 !
 ! D5    D(2,1,6,5)             -0.0007         -DE/DX =    0.0                 !
 ! D6    D(2,1,6,12)           179.9901         -DE/DX =    0.0                 !
 ! D7    D(7,1,6,5)            179.9963         -DE/DX =    0.0                 !
 ! D8    D(7,1,6,12)            -0.013          -DE/DX =    0.0                 !
 ! D9    D(1,2,3,4)              0.0198         -DE/DX =    0.0                 !
 ! D10   D(1,2,3,11)           179.9734         -DE/DX =    0.0                 !
 ! D11   D(8,2,3,4)           -179.9851         -DE/DX =    0.0                 !
 ! D12   D(8,2,3,11)            -0.0314         -DE/DX =    0.0                 !
 ! D13   D(2,3,4,5)             -0.0198         -DE/DX =    0.0                 !
 ! D14   D(2,3,4,9)            179.9851         -DE/DX =    0.0                 !
 ! D15   D(11,3,4,5)          -179.9734         -DE/DX =    0.0                 !
 ! D16   D(11,3,4,9)             0.0314         -DE/DX =    0.0                 !
 ! D17   D(3,4,5,6)              0.0105         -DE/DX =    0.0                 !
 ! D18   D(3,4,5,10)           180.0072         -DE/DX =    0.0                 !
 ! D19   D(9,4,5,6)           -179.9945         -DE/DX =    0.0                 !
 ! D20   D(9,4,5,10)             0.0023         -DE/DX =    0.0                 !
 ! D21   D(4,5,6,1)              0.0007         -DE/DX =    0.0                 !
 ! D22   D(4,5,6,12)          -179.9901         -DE/DX =    0.0                 !
 ! D23   D(10,5,6,1)          -179.9963         -DE/DX =    0.0                 !
 ! D24   D(10,5,6,12)            0.013          -DE/DX =    0.0                 !
 --------------------------------------------------------------------------------
 GradGradGradGradGradGradGradGradGradGradGradGradGradGradGradGradGradGrad

 Leave Link  103 at Fri Aug 27 21:27:22 2021, MaxMem= 17179869184 cpu:        24.0
 (Enter /public3/home/sc51754/softwares/g09e01/l9999.exe)
 1\1\GINC-T1507\Freq\RwB97\Gen\C5H5N1O1\SC51754\27-Aug-2021\0\\#P Geom=
 AllCheck Guess=TCheck SCRF=Check GenChk RwB97/ChkBas Freq\\4PY_wB97_PC
 2_OPT_FREQ\\0,1\C,-0.0001703488,-1.0426386341,1.187091315\C,-0.0000935
 419,0.3021114854,1.22871788\C,0.0001883796,1.1028430096,0.\C,-0.000093
 5419,0.3021114854,-1.22871788\C,-0.0001703488,-1.0426386341,-1.1870913
 15\N,-0.0002025489,-1.7237270677,0.\H,-0.0002622662,-1.6577712955,2.07
 88876708\H,-0.0001590193,0.8222554356,2.177425267\H,-0.0001590193,0.82
 22554356,-2.177425267\H,-0.0002622662,-1.6577712955,-2.0788876708\O,-0
 .0002102554,2.3264685242,0.\H,-0.000109223,-2.7265784488,0.\\Version=E
 M64L-G09RevE.01\State=1-A'\HF=-323.5695476\RMSD=1.677e-09\RMSF=4.390e-
 05\ZeroPoint=0.0946686\Thermal=0.1000585\Dipole=0.0001626,-2.7626793,0
 .\DipoleDeriv=-0.0437778,0.0000599,-0.0000012,0.0001151,0.7827613,0.31
 08937,0.0000037,0.4463595,0.4844006,-0.2306699,-0.0001133,0.0000342,-0
 .0000635,-0.6797786,0.0326828,0.0000065,0.540347,-0.1643371,0.2845555,
 0.0000663,0.,0.000144,2.0702034,0.,0.,0.,0.6029478,-0.2306699,-0.00011
 33,-0.0000342,-0.0000635,-0.6797786,-0.0326829,-0.0000065,-0.540347,-0
 .1643371,-0.0437778,0.0000599,0.0000012,0.0001151,0.7827613,-0.3108936
 ,-0.0000037,-0.4463594,0.4844006,-0.2051802,-0.0001994,0.,-0.000105,-0
 .979288,0.,0.,0.,-0.8472312,0.1460357,-0.0000489,-0.0000035,-0.0000022
 ,0.0295982,0.0608547,0.0000208,0.0513115,0.0021226,0.1518945,-0.000013
 2,0.0000211,-0.0000065,0.0555633,-0.030824,0.0000083,-0.0213647,-0.019
 0311,0.1518945,-0.0000132,-0.0000211,-0.0000065,0.0555633,0.030824,-0.
 0000083,0.0213647,-0.0190311,0.1460357,-0.0000489,0.0000035,-0.0000022
 ,0.0295982,-0.0608547,-0.0000208,-0.0513115,0.0021226,-0.4336204,0.000
 2563,0.,-0.0001324,-1.7635901,0.,0.,0.,-0.4937141,0.30728,0.0001077,0.
 ,0.0000076,0.2963863,0.,0.,0.,0.1316875\Polar=38.2407009,0.0013269,91.
 1095719,0.,0.,66.4238107\PG=CS [SG(C1H1N1O1),X(C4H4)]\NImag=0\\0.13979
 422,0.00005596,0.86065885,-0.00002657,-0.05220580,0.71141878,-0.054622
 04,-0.00003231,0.00001379,0.10694684,-0.00003566,-0.48835158,0.0177033
 0,0.00004144,0.82814935,0.00000809,-0.02240777,-0.13913357,-0.00005557
 ,0.08320261,0.66338602,-0.00067536,0.00000600,-0.00000174,-0.07497184,
 -0.00002375,0.00002695,0.20237193,-0.00000609,-0.03413804,0.02160939,-
 0.00002266,-0.11429953,0.04136445,-0.00013648,0.93723590,-0.00000236,0
 .04170310,0.04929947,0.00003813,0.02992611,-0.22677363,0.,0.,0.5571456
 8,-0.00168423,-0.00000336,-0.00000321,0.00943498,0.00000171,0.00000600
 ,-0.07497184,-0.00002266,-0.00003813,0.10694684,0.00000093,-0.01172815
 ,-0.02204081,0.00000171,0.02680913,0.01255998,-0.00002375,-0.11429954,
 -0.02992612,0.00004144,0.82814935,0.00000097,0.00597958,-0.00311589,-0
 .00000600,-0.01255998,-0.02429656,-0.00002695,-0.04136445,-0.22677363,
 0.00005557,-0.08320261,0.66338602,0.00609339,0.00000017,-0.00000096,-0
 .00168423,0.00000093,-0.00000097,-0.00067536,-0.00000609,0.00000236,-0
 .05462204,-0.00003566,-0.00000809,0.13979422,0.00000017,0.02426810,0.0
 0846615,-0.00000336,-0.01172815,-0.00597958,0.00000600,-0.03413805,-0.
 04170310,-0.00003231,-0.48835158,0.02240777,0.00005596,0.86065885,0.00
 000096,-0.00846615,-0.07048556,0.00000321,0.02204081,-0.00311589,0.000
 00174,-0.02160940,0.04929947,-0.00001379,-0.01770330,-0.13913357,0.000
 02657,0.05220580,0.71141878,-0.04877517,-0.00000145,0.00000075,0.01119
 128,-0.00000032,-0.00000129,-0.01100863,-0.00000018,0.,0.01119128,-0.0
 0000032,0.00000129,-0.04877517,-0.00000145,-0.00000075,0.06668084,-0.0
 0000408,-0.18366754,-0.10060497,-0.00000070,-0.04239702,-0.03562996,-0
 .00000172,0.01689094,0.,-0.00000070,-0.04239702,0.03562995,-0.00000408
 ,-0.18366754,0.10060497,-0.00003529,0.91040146,-0.00000637,-0.06609981
 ,-0.28776074,-0.00000447,-0.05655474,0.01131151,0.,0.,-0.06402000,0.00
 000447,0.05655474,0.01131151,0.00000637,0.06609981,-0.28776074,0.,0.,0
 .71720746,-0.04021491,-0.00001259,0.00002493,0.00785313,-0.00000364,0.
 00000398,0.01164893,0.00000056,-0.00000210,-0.00109684,0.00000044,-0.0
 0000013,0.00365596,0.00000034,0.00000073,0.00151550,-0.00000151,-0.000
 00349,0.02611218,-0.00001443,-0.15776866,0.14135362,-0.00000647,-0.009
 82728,0.02678086,-0.00000021,-0.00323339,-0.00426388,0.00000011,0.0004
 9313,0.00027144,-0.00000027,-0.00244968,-0.00203942,0.00000098,0.01337
 618,-0.02033099,0.00001880,0.15903101,0.00002267,0.13299373,-0.2531039
 9,-0.00000137,-0.00245775,0.00680983,0.00000038,-0.00164227,-0.0000986
 2,0.00000013,0.00068319,0.00101868,0.00000033,-0.00592809,-0.00120113,
 0.00000241,0.01790315,-0.02500210,-0.00002405,-0.14298607,0.27130093,-
 0.00120391,-0.00000248,-0.00000159,-0.03108020,0.00000820,0.00001705,0
 .00433393,0.00000423,0.00000651,0.00310051,-0.00000096,0.00000158,0.00
 000141,-0.00000118,0.00000008,0.00942690,-0.00000042,0.00000016,-0.005
 71300,0.00000011,-0.00000019,0.02366991,0.00000176,-0.00846682,-0.0284
 8072,0.00000618,-0.12397299,-0.12388299,-0.00000122,0.01259018,0.01553
 888,-0.00000035,-0.00204668,0.00284964,0.00000001,-0.00050192,0.000864
 74,-0.00000080,-0.00559620,0.00127944,0.00000071,0.00066332,0.00022889
 ,-0.00000638,0.12635250,-0.00000071,0.00365096,0.00380829,0.00002194,-
 0.12666567,-0.29061316,0.00000106,-0.01847962,-0.01645302,0.00000130,0
 .00328846,-0.00376017,0.00000005,0.00174466,-0.00087369,0.00000192,0.0
 0136595,0.00348268,-0.00000116,-0.00055557,0.00063594,-0.00002285,0.13
 505285,0.30062509,0.00000141,-0.00000118,-0.00000008,0.00310051,-0.000
 00096,-0.00000158,0.00433393,0.00000423,-0.00000651,-0.03108020,0.0000
 0820,-0.00001705,-0.00120391,-0.00000248,0.00000159,0.00942690,-0.0000
 0042,-0.00000016,-0.00067285,0.00000015,-0.00000008,-0.00093856,0.0000
 0040,-0.00000042,0.02366991,0.00000001,-0.00050192,-0.00086474,-0.0000
 0035,-0.00204668,-0.00284964,-0.00000122,0.01259018,-0.01553888,0.0000
 0618,-0.12397299,0.12388299,0.00000176,-0.00846682,0.02848072,-0.00000
 080,-0.00559620,-0.00127944,0.00000005,0.00009168,0.00009686,0.0000004
 0,0.00056693,-0.00078271,-0.00000638,0.12635250,-0.00000005,-0.0017446
 6,-0.00087369,-0.00000130,-0.00328846,-0.00376017,-0.00000106,0.018479
 62,-0.01645302,-0.00002194,0.12666567,-0.29061316,0.00000071,-0.003650
 96,0.00380829,-0.00000192,-0.00136595,0.00348268,0.00000022,0.00009591
 ,0.00004407,0.00000042,0.00078271,-0.00101264,0.00002285,-0.13505285,0
 .30062509,0.00365596,0.00000034,-0.00000073,-0.00109684,0.00000044,0.0
 0000013,0.01164893,0.00000056,0.00000210,0.00785313,-0.00000364,-0.000
 00398,-0.04021491,-0.00001259,-0.00002493,0.00151550,-0.00000151,0.000
 00349,0.00096331,-0.00000016,-0.00000004,-0.00067285,0.00000005,-0.000
 00022,-0.00571300,0.00000071,0.00000116,0.02611218,-0.00000027,-0.0024
 4968,0.00203942,0.00000011,0.00049313,-0.00027144,-0.00000021,-0.00323
 339,0.00426388,-0.00000647,-0.00982728,-0.02678086,-0.00001443,-0.1577
 6866,-0.14135362,0.00000098,0.01337618,0.02033099,-0.00000016,0.000442
 22,0.00067098,0.00000015,0.00009168,-0.00009591,0.00000011,0.00066332,
 0.00055557,0.00001880,0.15903101,-0.00000033,0.00592809,-0.00120113,-0
 .00000013,-0.00068319,0.00101868,-0.00000038,0.00164227,-0.00009861,0.
 00000137,0.00245775,0.00680983,-0.00002267,-0.13299373,-0.25310399,-0.
 00000241,-0.01790315,-0.02500210,0.00000004,-0.00067098,-0.00103352,0.
 00000008,-0.00009686,0.00004407,0.00000019,-0.00022889,0.00063594,0.00
 002405,0.14298607,0.27130093,0.00392669,-0.00000255,-0.00000056,0.0217
 7707,0.00000882,-0.00000098,-0.07164909,0.00018565,0.,0.02177707,0.000
 00882,0.00000098,0.00392669,-0.00000255,0.00000056,0.00023743,0.000001
 77,0.,-0.00225842,0.00000079,-0.00000009,-0.00263410,0.00000017,-0.000
 00122,-0.00263410,0.00000017,0.00000122,-0.00225842,0.00000079,0.00000
 009,0.03015889,0.00000056,0.01370873,0.01173585,0.00001575,-0.06580047
 ,0.03047055,0.00017606,-0.67447274,0.,0.00001575,-0.06580047,-0.030470
 55,0.00000056,0.01370873,-0.01173585,0.00000004,-0.01343006,0.,-0.0000
 0272,-0.00190444,0.00024860,-0.00000140,0.00071229,0.00120964,-0.00000
 140,0.00071229,-0.00120964,-0.00000272,-0.00190445,-0.00024860,-0.0002
 0159,0.79271386,0.00000114,-0.00581805,-0.01586713,-0.00000838,0.05104
 242,0.01103445,0.,0.,-0.10295248,0.00000838,-0.05104242,0.01103445,-0.
 00000114,0.00581805,-0.01586713,0.,0.,0.01567434,0.00000118,0.00189948
 ,0.00033497,-0.00000073,-0.00282749,0.00389537,0.00000073,0.00282749,0
 .00389537,-0.00000118,-0.00189948,0.00033497,0.,0.,0.08776589,-0.00629
 607,-0.00000655,-0.00000404,0.00315134,0.00000278,-0.00000181,-0.00038
 551,-0.00000107,0.,0.00315134,0.00000278,0.00000181,-0.00629607,-0.000
 00655,0.00000404,-0.00262666,0.00004867,0.,-0.00179298,0.00000060,-0.0
 0000011,0.00170996,-0.00000053,0.00000031,0.00170996,-0.00000053,-0.00
 000031,-0.00179298,0.00000060,0.00000011,-0.00036970,0.00000112,0.,0.0
 0983740,0.00000114,-0.01156328,0.00128930,0.00000065,0.00297209,-0.003
 35707,0.00000049,-0.00149253,0.,0.00000065,0.00297209,0.00335707,0.000
 00114,-0.01156328,-0.00128930,0.00003863,-0.47729317,0.,-0.00000028,0.
 00108593,0.00018878,-0.00000027,-0.00039230,0.00026696,-0.00000027,-0.
 00039230,-0.00026696,-0.00000028,0.00108593,-0.00018878,-0.00000028,0.
 00175673,0.,-0.00004130,0.49282408,0.00000255,-0.03351322,0.00701516,0
 .00000015,-0.00170547,-0.00586751,0.,0.,-0.00212161,-0.00000015,0.0017
 0547,-0.00586751,-0.00000255,0.03351322,0.00701516,0.,0.,-0.07292450,-
 0.00000014,0.00044560,0.00029493,-0.00000052,-0.00130910,0.00022125,0.
 00000052,0.00130910,0.00022125,0.00000014,-0.00044560,0.00029493,0.,0.
 ,0.00071692,0.,0.,0.07100151\\-0.00000038,0.00001183,-0.00003319,-0.00
 003764,-0.00005050,0.00009554,0.00011742,0.00014221,0.,-0.00003764,-0.
 00005050,-0.00009554,-0.00000038,0.00001183,0.00003319,-0.00000866,-0.
 00002598,0.,0.00000392,-0.00000494,0.00003279,0.00000031,0.00000488,-0
 .00001080,0.00000031,0.00000488,0.00001080,0.00000392,-0.00000494,-0.0
 0003279,-0.00004383,-0.00003860,0.,0.00000264,-0.00000018,0.\\\@


 A MAN BEGINS CUTTING HIS WISDOM TEETH THE 1ST
 TIME HE BITES OFF MORE THAN HE CAN CHEW.
 Job cpu time:       0 days  0 hours 43 minutes 13.0 seconds.
 File lengths (MBytes):  RWF=     65 Int=      0 D2E=      0 Chk=      7 Scr=      1
 Normal termination of Gaussian 09 at Fri Aug 27 21:27:22 2021.
