 Entering Gaussian System, Link 0=g09
 AtFile(1): pc-2.gbs
            -H     0
            S    4   1.00
                  0.754230D+02           0.240650D-02
                  0.113500D+02           0.184870D-01
                  0.259930D+01           0.897420D-01
                  0.735130D+00           0.281110D+00
            S    1   1.00
                  0.231670D+00           0.100000D+01
            S    1   1.00
                  0.741470D-01           0.100000D+01
            P    1   1.00
                  0.160000D+01           0.100000D+01
            P    1   1.00
                  0.450000D+00           0.100000D+01
            D    1   1.00
                  0.125000D+01           0.100000D+01
            ****
            -C     0
            S    7   1.00
                  0.785710D+04           0.568250D-03
                  0.117870D+04           0.439150D-02
                  0.268320D+03           0.225040D-01
                  0.759480D+02           0.866530D-01
                  0.245590D+02           0.244050D+00
                  0.862120D+01           0.441480D+00
                  0.312780D+01           0.353320D+00
            S    7   1.00
                  0.117870D+04          -0.594920D-06
                  0.268320D+03          -0.627480D-04
                  0.759480D+02          -0.757730D-03
                  0.245590D+02          -0.733080D-02
                  0.862120D+01          -0.389320D-01
                  0.312780D+01          -0.889080D-01
                  0.822020D+00           0.216890D+00
            S    1   1.00
                  0.330170D+00           0.100000D+01
            S    1   1.00
                  0.114630D+00           0.100000D+01
            P    4   1.00
                  0.337750D+02           0.602940D-02
                  0.767660D+01           0.432280D-01
                  0.223570D+01           0.163010D+00
                  0.764470D+00           0.365040D+00
            P    1   1.00
                  0.262320D+00           0.100000D+01
            P    1   1.00
                  0.846380D-01           0.100000D+01
            D    1   1.00
                  0.140000D+01           0.100000D+01
            D    1   1.00
                  0.450000D+00           0.100000D+01
            F    1   1.00
                  0.950000D+00           0.100000D+01
            ****
            -N     0
            S    7   1.00
                  0.111010D+05           0.545700D-03
                  0.166530D+04           0.421810D-02
                  0.379080D+03           0.216450D-01
                  0.107300D+03           0.837760D-01
                  0.347470D+02           0.238810D+00
                  0.122490D+02           0.439940D+00
                  0.447430D+01           0.363640D+00
            S    7   1.00
                  0.166530D+04          -0.150060D-05
                  0.379080D+03          -0.587530D-04
                  0.107300D+03          -0.774530D-03
                  0.347470D+02          -0.721610D-02
                  0.122490D+02          -0.393380D-01
                  0.447430D+01          -0.906110D-01
                  0.124040D+01           0.198820D+00
            S    1   1.00
                  0.487430D+00           0.100000D+01
            S    1   1.00
                  0.164840D+00           0.100000D+01
            P    4   1.00
                  0.479340D+02           0.617060D-02
                  0.109990D+02           0.442600D-01
                  0.324720D+01           0.168250D+00
                  0.111140D+01           0.368480D+00
            P    1   1.00
                  0.379880D+00           0.100000D+01
            P    1   1.00
                  0.120680D+00           0.100000D+01
            D    1   1.00
                  0.180000D+01           0.100000D+01
            D    1   1.00
                  0.550000D+00           0.100000D+01
            F    1   1.00
                  0.102000D+01           0.100000D+01
            ****
            -O     0
            S    7   1.00
                  0.147820D+05           0.535190D-03
                  0.221730D+04           0.413750D-02
                  0.504740D+03           0.212450D-01
                  0.142870D+03           0.824530D-01
                  0.463000D+02           0.236710D+00
                  0.163370D+02           0.440390D+00
                  0.598280D+01           0.364650D+00
            S    7   1.00
                  0.221730D+04          -0.192750D-05
                  0.504740D+03          -0.579640D-04
                  0.142870D+03          -0.794940D-03
                  0.463000D+02          -0.731250D-02
                  0.163370D+02          -0.405740D-01
                  0.598280D+01          -0.915940D-01
                  0.167180D+01           0.209400D+00
            S    1   1.00
                  0.646620D+00           0.100000D+01
            S    1   1.00
                  0.216690D+00           0.100000D+01
            P    4   1.00
                  0.604240D+02           0.689490D-02
                  0.139350D+02           0.490050D-01
                  0.415310D+01           0.182550D+00
                  0.141580D+01           0.376330D+00
            P    1   1.00
                  0.475490D+00           0.100000D+01
            P    1   1.00
                  0.145290D+00           0.100000D+01
            D    1   1.00
                  0.220000D+01           0.100000D+01
            D    1   1.00
                  0.650000D+00           0.100000D+01
            F    1   1.00
                  0.110000D+01           0.100000D+01
            ****
 Initial command:
 /public3/home/sc51754/softwares/g09e01/l1.exe "./Gau-30015.inp" -scrdir="./"
 Entering Link 1 = /public3/home/sc51754/softwares/g09e01/l1.exe PID=     30016.
  
 Copyright (c) 1988,1990,1992,1993,1995,1998,2003,2009,2015,
            Gaussian, Inc.  All Rights Reserved.
  
 This is part of the Gaussian(R) 09 program.  It is based on
 the Gaussian(R) 03 system (copyright 2003, Gaussian, Inc.),
 the Gaussian(R) 98 system (copyright 1998, Gaussian, Inc.),
 the Gaussian(R) 94 system (copyright 1995, Gaussian, Inc.),
 the Gaussian 92(TM) system (copyright 1992, Gaussian, Inc.),
 the Gaussian 90(TM) system (copyright 1990, Gaussian, Inc.),
 the Gaussian 88(TM) system (copyright 1988, Gaussian, Inc.),
 the Gaussian 86(TM) system (copyright 1986, Carnegie Mellon
 University), and the Gaussian 82(TM) system (copyright 1983,
 Carnegie Mellon University). Gaussian is a federally registered
 trademark of Gaussian, Inc.
  
 This software contains proprietary and confidential information,
 including trade secrets, belonging to Gaussian, Inc.
  
 This software is provided under written license and may be
 used, copied, transmitted, or stored only in accord with that
 written license.
  
 The following legend is applicable only to US Government
 contracts under FAR:
  
                    RESTRICTED RIGHTS LEGEND
  
 Use, reproduction and disclosure by the US Government is
 subject to restrictions as set forth in subparagraphs (a)
 and (c) of the Commercial Computer Software - Restricted
 Rights clause in FAR 52.227-19.
  
 Gaussian, Inc.
 340 Quinnipiac St., Bldg. 40, Wallingford CT 06492
  
  
 ---------------------------------------------------------------
 Warning -- This program may not be used in any manner that
 competes with the business of Gaussian, Inc. or will provide
 assistance to any competitor of Gaussian, Inc.  The licensee
 of this program is prohibited from giving any competitor of
 Gaussian, Inc. access to this program.  By using this program,
 the user acknowledges that Gaussian, Inc. is engaged in the
 business of creating and licensing software in the field of
 computational chemistry and represents and warrants to the
 licensee that it is not a competitor of Gaussian, Inc. and that
 it will not use this program in any manner prohibited above.
 ---------------------------------------------------------------
  

 Cite this work as:
 Gaussian 09, Revision E.01,
 M. J. Frisch, G. W. Trucks, H. B. Schlegel, G. E. Scuseria, 
 M. A. Robb, J. R. Cheeseman, G. Scalmani, V. Barone, B. Mennucci, 
 G. A. Petersson, H. Nakatsuji, M. Caricato, X. Li, H. P. Hratchian, 
 A. F. Izmaylov, J. Bloino, G. Zheng, J. L. Sonnenberg, M. Hada, 
 M. Ehara, K. Toyota, R. Fukuda, J. Hasegawa, M. Ishida, T. Nakajima, 
 Y. Honda, O. Kitao, H. Nakai, T. Vreven, J. A. Montgomery, Jr., 
 J. E. Peralta, F. Ogliaro, M. Bearpark, J. J. Heyd, E. Brothers, 
 K. N. Kudin, V. N. Staroverov, T. Keith, R. Kobayashi, J. Normand, 
 K. Raghavachari, A. Rendell, J. C. Burant, S. S. Iyengar, J. Tomasi, 
 M. Cossi, N. Rega, J. M. Millam, M. Klene, J. E. Knox, J. B. Cross, 
 V. Bakken, C. Adamo, J. Jaramillo, R. Gomperts, R. E. Stratmann, 
 O. Yazyev, A. J. Austin, R. Cammi, C. Pomelli, J. W. Ochterski, 
 R. L. Martin, K. Morokuma, V. G. Zakrzewski, G. A. Voth, 
 P. Salvador, J. J. Dannenberg, S. Dapprich, A. D. Daniels, 
 O. Farkas, J. B. Foresman, J. V. Ortiz, J. Cioslowski, 
 and D. J. Fox, Gaussian, Inc., Wallingford CT, 2013.
 
 ******************************************
 Gaussian 09:  EM64L-G09RevE.01 30-Nov-2015
                27-Aug-2021 
 ******************************************
 %nprocshared=64
 Will use up to   64 processors via shared memory.
 %mem=128GB
 %chk=4PY_TPSSTPSS_PC2_OPT_FREQ.chk
 ------------------------
 #p opt freq TPSSTPSS/gen
 ------------------------
 1/14=-1,18=20,19=15,26=3,38=1/1,3;
 2/9=110,12=2,17=6,18=5,40=1/2;
 3/5=7,11=2,16=1,25=1,30=1,71=1,74=2523/1,2,3;
 4//1;
 5/5=2,38=5/2;
 6/7=2,8=2,9=2,10=2,28=1/1;
 7//1,2,3,16;
 1/14=-1,18=20,19=15,26=3/3(2);
 2/9=110/2;
 99//99;
 2/9=110/2;
 3/5=7,6=1,11=2,16=1,25=1,30=1,71=1,74=2523,82=7/1,2,3;
 4/5=5,16=3,69=1/1;
 5/5=2,38=5/2;
 7//1,2,3,16;
 1/14=-1,18=20,19=15,26=3/3(-5);
 2/9=110/2;
 6/7=2,8=2,9=2,10=2,19=2,28=1/1;
 99/9=1/99;
 Leave Link    1 at Fri Aug 27 21:14:57 2021, MaxMem= 17179869184 cpu:         5.3
 (Enter /public3/home/sc51754/softwares/g09e01/l101.exe)
 -------------------------
 4PY_TPSSTPSS_PC2_OPT_FREQ
 -------------------------
 Symbolic Z-matrix:
 Charge =  0 Multiplicity = 1
 C                    -0.00018  -1.04887   1.19382 
 C                    -0.00018   0.30655   1.22857 
 C                     0.00022   1.11152   0. 
 C                    -0.00018   0.30655  -1.22857 
 C                    -0.00018  -1.04887  -1.19382 
 N                     0.00002  -1.72968   0. 
 H                    -0.00063  -1.66693   2.08522 
 H                    -0.00059   0.82774   2.17893 
 H                    -0.00059   0.82774  -2.17893 
 H                    -0.00063  -1.66693  -2.08522 
 O                     0.0006    2.34525   0. 
 H                     0.00063  -2.73716   0. 
 
 NAtoms=     12 NQM=       12 NQMF=       0 NMMI=      0 NMMIF=      0
                NMic=       0 NMicF=      0.
                    Isotopes and Nuclear Properties:
 (Nuclear quadrupole moments (NQMom) in fm**2, nuclear magnetic moments (NMagM)
  in nuclear magnetons)

  Atom         1           2           3           4           5           6           7           8           9          10
 IAtWgt=          12          12          12          12          12          14           1           1           1           1
 AtmWgt=  12.0000000  12.0000000  12.0000000  12.0000000  12.0000000  14.0030740   1.0078250   1.0078250   1.0078250   1.0078250
 NucSpn=           0           0           0           0           0           2           1           1           1           1
 AtZEff=   0.0000000   0.0000000   0.0000000   0.0000000   0.0000000   0.0000000   0.0000000   0.0000000   0.0000000   0.0000000
 NQMom=    0.0000000   0.0000000   0.0000000   0.0000000   0.0000000   2.0440000   0.0000000   0.0000000   0.0000000   0.0000000
 NMagM=    0.0000000   0.0000000   0.0000000   0.0000000   0.0000000   0.4037610   2.7928460   2.7928460   2.7928460   2.7928460
 AtZNuc=   6.0000000   6.0000000   6.0000000   6.0000000   6.0000000   7.0000000   1.0000000   1.0000000   1.0000000   1.0000000

  Atom        11          12
 IAtWgt=          16           1
 AtmWgt=  15.9949146   1.0078250
 NucSpn=           0           1
 AtZEff=   0.0000000   0.0000000
 NQMom=    0.0000000   0.0000000
 NMagM=    0.0000000   2.7928460
 AtZNuc=   8.0000000   1.0000000
 Leave Link  101 at Fri Aug 27 21:14:57 2021, MaxMem= 17179869184 cpu:        11.5
 (Enter /public3/home/sc51754/softwares/g09e01/l103.exe)

 GradGradGradGradGradGradGradGradGradGradGradGradGradGradGradGradGradGrad
 Berny optimization.
 Initialization pass.
                           ----------------------------
                           !    Initial Parameters    !
                           ! (Angstroms and Degrees)  !
 --------------------------                            --------------------------
 ! Name  Definition              Value          Derivative Info.                !
 --------------------------------------------------------------------------------
 ! R1    R(1,2)                  1.3559         estimate D2E/DX2                !
 ! R2    R(1,6)                  1.3743         estimate D2E/DX2                !
 ! R3    R(1,7)                  1.0847         estimate D2E/DX2                !
 ! R4    R(2,3)                  1.4688         estimate D2E/DX2                !
 ! R5    R(2,8)                  1.0839         estimate D2E/DX2                !
 ! R6    R(3,4)                  1.4688         estimate D2E/DX2                !
 ! R7    R(3,11)                 1.2337         estimate D2E/DX2                !
 ! R8    R(4,5)                  1.3559         estimate D2E/DX2                !
 ! R9    R(4,9)                  1.0839         estimate D2E/DX2                !
 ! R10   R(5,6)                  1.3743         estimate D2E/DX2                !
 ! R11   R(5,10)                 1.0847         estimate D2E/DX2                !
 ! R12   R(6,12)                 1.0075         estimate D2E/DX2                !
 ! A1    A(2,1,6)              121.1639         estimate D2E/DX2                !
 ! A2    A(2,1,7)              123.267          estimate D2E/DX2                !
 ! A3    A(6,1,7)              115.5691         estimate D2E/DX2                !
 ! A4    A(1,2,3)              121.7645         estimate D2E/DX2                !
 ! A5    A(1,2,8)              120.2096         estimate D2E/DX2                !
 ! A6    A(3,2,8)              118.0259         estimate D2E/DX2                !
 ! A7    A(2,3,4)              113.5338         estimate D2E/DX2                !
 ! A8    A(2,3,11)             123.2331         estimate D2E/DX2                !
 ! A9    A(4,3,11)             123.2331         estimate D2E/DX2                !
 ! A10   A(3,4,5)              121.7645         estimate D2E/DX2                !
 ! A11   A(3,4,9)              118.0259         estimate D2E/DX2                !
 ! A12   A(5,4,9)              120.2096         estimate D2E/DX2                !
 ! A13   A(4,5,6)              121.1639         estimate D2E/DX2                !
 ! A14   A(4,5,10)             123.267          estimate D2E/DX2                !
 ! A15   A(6,5,10)             115.5691         estimate D2E/DX2                !
 ! A16   A(1,6,5)              120.6094         estimate D2E/DX2                !
 ! A17   A(1,6,12)             119.6953         estimate D2E/DX2                !
 ! A18   A(5,6,12)             119.6953         estimate D2E/DX2                !
 ! D1    D(6,1,2,3)             -0.0087         estimate D2E/DX2                !
 ! D2    D(6,1,2,8)            179.9852         estimate D2E/DX2                !
 ! D3    D(7,1,2,3)           -179.9904         estimate D2E/DX2                !
 ! D4    D(7,1,2,8)              0.0035         estimate D2E/DX2                !
 ! D5    D(2,1,6,5)             -0.0199         estimate D2E/DX2                !
 ! D6    D(2,1,6,12)           179.9596         estimate D2E/DX2                !
 ! D7    D(7,1,6,5)            179.9631         estimate D2E/DX2                !
 ! D8    D(7,1,6,12)            -0.0574         estimate D2E/DX2                !
 ! D9    D(1,2,3,4)              0.0339         estimate D2E/DX2                !
 ! D10   D(1,2,3,11)          -179.9797         estimate D2E/DX2                !
 ! D11   D(8,2,3,4)           -179.9602         estimate D2E/DX2                !
 ! D12   D(8,2,3,11)             0.0262         estimate D2E/DX2                !
 ! D13   D(2,3,4,5)             -0.0339         estimate D2E/DX2                !
 ! D14   D(2,3,4,9)            179.9602         estimate D2E/DX2                !
 ! D15   D(11,3,4,5)           179.9797         estimate D2E/DX2                !
 ! D16   D(11,3,4,9)            -0.0262         estimate D2E/DX2                !
 ! D17   D(3,4,5,6)              0.0087         estimate D2E/DX2                !
 ! D18   D(3,4,5,10)           179.9904         estimate D2E/DX2                !
 ! D19   D(9,4,5,6)           -179.9852         estimate D2E/DX2                !
 ! D20   D(9,4,5,10)            -0.0035         estimate D2E/DX2                !
 ! D21   D(4,5,6,1)              0.0199         estimate D2E/DX2                !
 ! D22   D(4,5,6,12)          -179.9596         estimate D2E/DX2                !
 ! D23   D(10,5,6,1)          -179.9631         estimate D2E/DX2                !
 ! D24   D(10,5,6,12)            0.0574         estimate D2E/DX2                !
 --------------------------------------------------------------------------------
 Trust Radius=3.00D-01 FncErr=1.00D-07 GrdErr=1.00D-06
 Number of steps in this run=     64 maximum allowed number of steps=    100.
 GradGradGradGradGradGradGradGradGradGradGradGradGradGradGradGradGradGrad

 Leave Link  103 at Fri Aug 27 21:14:58 2021, MaxMem= 17179869184 cpu:         0.1
 (Enter /public3/home/sc51754/softwares/g09e01/l202.exe)
                          Input orientation:                          
 ---------------------------------------------------------------------
 Center     Atomic      Atomic             Coordinates (Angstroms)
 Number     Number       Type             X           Y           Z
 ---------------------------------------------------------------------
      1          6           0       -0.000184   -1.048866    1.193818
      2          6           0       -0.000184    0.306549    1.228568
      3          6           0        0.000221    1.111516    0.000000
      4          6           0       -0.000184    0.306549   -1.228568
      5          6           0       -0.000184   -1.048866   -1.193818
      6          7           0        0.000018   -1.729678    0.000000
      7          1           0       -0.000630   -1.666925    2.085223
      8          1           0       -0.000587    0.827738    2.178925
      9          1           0       -0.000587    0.827738   -2.178925
     10          1           0       -0.000630   -1.666925   -2.085223
     11          8           0        0.000597    2.345248    0.000000
     12          1           0        0.000630   -2.737158    0.000000
 ---------------------------------------------------------------------
                    Distance matrix (angstroms):
                    1          2          3          4          5
     1  C    0.000000
     2  C    1.355860   0.000000
     3  C    2.468289   1.468792   0.000000
     4  C    2.775807   2.457136   1.468792   0.000000
     5  C    2.387636   2.775807   2.468289   1.355860   0.000000
     6  N    1.374302   2.378150   2.841194   2.378150   1.374302
     7  H    1.084712   2.151385   3.473887   3.856917   3.336781
     8  H    2.119452   1.083890   2.197327   3.447122   3.859668
     9  H    3.859668   3.447122   2.197327   1.083890   2.119452
    10  H    3.336781   3.856917   3.473887   2.151385   1.084712
    11  O    3.597946   2.380268   1.233732   2.380268   3.597946
    12  H    2.067736   3.282306   3.848674   3.282306   2.067736
                    6          7          8          9         10
     6  N    0.000000
     7  H    2.086167   0.000000
     8  H    3.359775   2.496422   0.000000
     9  H    3.359775   4.940273   4.357850   0.000000
    10  H    2.086167   4.170446   4.940273   2.496422   0.000000
    11  O    4.074926   4.521691   2.655288   2.655288   4.521691
    12  H    1.007480   2.343833   4.178062   4.178062   2.343833
                   11         12
    11  O    0.000000
    12  H    5.082406   0.000000
 Stoichiometry    C5H5NO
 Framework group  CS[SG(CHNO),X(C4H4)]
 Deg. of freedom    17
 Full point group                 CS      NOp   2
 Largest Abelian subgroup         CS      NOp   2
 Largest concise Abelian subgroup CS      NOp   2
                         Standard orientation:                         
 ---------------------------------------------------------------------
 Center     Atomic      Atomic             Coordinates (Angstroms)
 Number     Number       Type             X           Y           Z
 ---------------------------------------------------------------------
      1          6           0        0.000184    1.048866    1.193818
      2          6           0        0.000184   -0.306549    1.228568
      3          6           0       -0.000221   -1.111516   -0.000000
      4          6           0        0.000184   -0.306549   -1.228568
      5          6           0        0.000184    1.048866   -1.193818
      6          7           0       -0.000018    1.729678    0.000000
      7          1           0        0.000630    1.666925    2.085223
      8          1           0        0.000587   -0.827738    2.178925
      9          1           0        0.000587   -0.827738   -2.178925
     10          1           0        0.000630    1.666925   -2.085223
     11          8           0       -0.000597   -2.345248   -0.000000
     12          1           0       -0.000630    2.737158    0.000000
 ---------------------------------------------------------------------
 Rotational constants (GHZ):      5.6935111      2.6926956      1.8281082
 Leave Link  202 at Fri Aug 27 21:14:58 2021, MaxMem= 17179869184 cpu:         2.8
 (Enter /public3/home/sc51754/softwares/g09e01/l301.exe)
 General basis read from cards:  (5D, 7F)
 Centers:       7      8      9     10     12
 S 4 1.00
     Exponent=  7.5423000000D+01 Coefficients=  2.4065000000D-03
     Exponent=  1.1350000000D+01 Coefficients=  1.8487000000D-02
     Exponent=  2.5993000000D+00 Coefficients=  8.9742000000D-02
     Exponent=  7.3513000000D-01 Coefficients=  2.8111000000D-01
 S 1 1.00
     Exponent=  2.3167000000D-01 Coefficients=  1.0000000000D+00
 S 1 1.00
     Exponent=  7.4147000000D-02 Coefficients=  1.0000000000D+00
 P 1 1.00
     Exponent=  1.6000000000D+00 Coefficients=  1.0000000000D+00
 P 1 1.00
     Exponent=  4.5000000000D-01 Coefficients=  1.0000000000D+00
 D 1 1.00
     Exponent=  1.2500000000D+00 Coefficients=  1.0000000000D+00
 ****
 Centers:       1      2      3      4      5
 S 7 1.00
     Exponent=  7.8571000000D+03 Coefficients=  5.6825000000D-04
     Exponent=  1.1787000000D+03 Coefficients=  4.3915000000D-03
     Exponent=  2.6832000000D+02 Coefficients=  2.2504000000D-02
     Exponent=  7.5948000000D+01 Coefficients=  8.6653000000D-02
     Exponent=  2.4559000000D+01 Coefficients=  2.4405000000D-01
     Exponent=  8.6212000000D+00 Coefficients=  4.4148000000D-01
     Exponent=  3.1278000000D+00 Coefficients=  3.5332000000D-01
 S 7 1.00
     Exponent=  1.1787000000D+03 Coefficients= -5.9492000000D-07
     Exponent=  2.6832000000D+02 Coefficients= -6.2748000000D-05
     Exponent=  7.5948000000D+01 Coefficients= -7.5773000000D-04
     Exponent=  2.4559000000D+01 Coefficients= -7.3308000000D-03
     Exponent=  8.6212000000D+00 Coefficients= -3.8932000000D-02
     Exponent=  3.1278000000D+00 Coefficients= -8.8908000000D-02
     Exponent=  8.2202000000D-01 Coefficients=  2.1689000000D-01
 S 1 1.00
     Exponent=  3.3017000000D-01 Coefficients=  1.0000000000D+00
 S 1 1.00
     Exponent=  1.1463000000D-01 Coefficients=  1.0000000000D+00
 P 4 1.00
     Exponent=  3.3775000000D+01 Coefficients=  6.0294000000D-03
     Exponent=  7.6766000000D+00 Coefficients=  4.3228000000D-02
     Exponent=  2.2357000000D+00 Coefficients=  1.6301000000D-01
     Exponent=  7.6447000000D-01 Coefficients=  3.6504000000D-01
 P 1 1.00
     Exponent=  2.6232000000D-01 Coefficients=  1.0000000000D+00
 P 1 1.00
     Exponent=  8.4638000000D-02 Coefficients=  1.0000000000D+00
 D 1 1.00
     Exponent=  1.4000000000D+00 Coefficients=  1.0000000000D+00
 D 1 1.00
     Exponent=  4.5000000000D-01 Coefficients=  1.0000000000D+00
 F 1 1.00
     Exponent=  9.5000000000D-01 Coefficients=  1.0000000000D+00
 ****
 Centers:       6
 S 7 1.00
     Exponent=  1.1101000000D+04 Coefficients=  5.4570000000D-04
     Exponent=  1.6653000000D+03 Coefficients=  4.2181000000D-03
     Exponent=  3.7908000000D+02 Coefficients=  2.1645000000D-02
     Exponent=  1.0730000000D+02 Coefficients=  8.3776000000D-02
     Exponent=  3.4747000000D+01 Coefficients=  2.3881000000D-01
     Exponent=  1.2249000000D+01 Coefficients=  4.3994000000D-01
     Exponent=  4.4743000000D+00 Coefficients=  3.6364000000D-01
 S 7 1.00
     Exponent=  1.6653000000D+03 Coefficients= -1.5006000000D-06
     Exponent=  3.7908000000D+02 Coefficients= -5.8753000000D-05
     Exponent=  1.0730000000D+02 Coefficients= -7.7453000000D-04
     Exponent=  3.4747000000D+01 Coefficients= -7.2161000000D-03
     Exponent=  1.2249000000D+01 Coefficients= -3.9338000000D-02
     Exponent=  4.4743000000D+00 Coefficients= -9.0611000000D-02
     Exponent=  1.2404000000D+00 Coefficients=  1.9882000000D-01
 S 1 1.00
     Exponent=  4.8743000000D-01 Coefficients=  1.0000000000D+00
 S 1 1.00
     Exponent=  1.6484000000D-01 Coefficients=  1.0000000000D+00
 P 4 1.00
     Exponent=  4.7934000000D+01 Coefficients=  6.1706000000D-03
     Exponent=  1.0999000000D+01 Coefficients=  4.4260000000D-02
     Exponent=  3.2472000000D+00 Coefficients=  1.6825000000D-01
     Exponent=  1.1114000000D+00 Coefficients=  3.6848000000D-01
 P 1 1.00
     Exponent=  3.7988000000D-01 Coefficients=  1.0000000000D+00
 P 1 1.00
     Exponent=  1.2068000000D-01 Coefficients=  1.0000000000D+00
 D 1 1.00
     Exponent=  1.8000000000D+00 Coefficients=  1.0000000000D+00
 D 1 1.00
     Exponent=  5.5000000000D-01 Coefficients=  1.0000000000D+00
 F 1 1.00
     Exponent=  1.0200000000D+00 Coefficients=  1.0000000000D+00
 ****
 Centers:      11
 S 7 1.00
     Exponent=  1.4782000000D+04 Coefficients=  5.3519000000D-04
     Exponent=  2.2173000000D+03 Coefficients=  4.1375000000D-03
     Exponent=  5.0474000000D+02 Coefficients=  2.1245000000D-02
     Exponent=  1.4287000000D+02 Coefficients=  8.2453000000D-02
     Exponent=  4.6300000000D+01 Coefficients=  2.3671000000D-01
     Exponent=  1.6337000000D+01 Coefficients=  4.4039000000D-01
     Exponent=  5.9828000000D+00 Coefficients=  3.6465000000D-01
 S 7 1.00
     Exponent=  2.2173000000D+03 Coefficients= -1.9275000000D-06
     Exponent=  5.0474000000D+02 Coefficients= -5.7964000000D-05
     Exponent=  1.4287000000D+02 Coefficients= -7.9494000000D-04
     Exponent=  4.6300000000D+01 Coefficients= -7.3125000000D-03
     Exponent=  1.6337000000D+01 Coefficients= -4.0574000000D-02
     Exponent=  5.9828000000D+00 Coefficients= -9.1594000000D-02
     Exponent=  1.6718000000D+00 Coefficients=  2.0940000000D-01
 S 1 1.00
     Exponent=  6.4662000000D-01 Coefficients=  1.0000000000D+00
 S 1 1.00
     Exponent=  2.1669000000D-01 Coefficients=  1.0000000000D+00
 P 4 1.00
     Exponent=  6.0424000000D+01 Coefficients=  6.8949000000D-03
     Exponent=  1.3935000000D+01 Coefficients=  4.9005000000D-02
     Exponent=  4.1531000000D+00 Coefficients=  1.8255000000D-01
     Exponent=  1.4158000000D+00 Coefficients=  3.7633000000D-01
 P 1 1.00
     Exponent=  4.7549000000D-01 Coefficients=  1.0000000000D+00
 P 1 1.00
     Exponent=  1.4529000000D-01 Coefficients=  1.0000000000D+00
 D 1 1.00
     Exponent=  2.2000000000D+00 Coefficients=  1.0000000000D+00
 D 1 1.00
     Exponent=  6.5000000000D-01 Coefficients=  1.0000000000D+00
 F 1 1.00
     Exponent=  1.1000000000D+00 Coefficients=  1.0000000000D+00
 ****
 Ernie: Thresh=  0.10000D-02 Tol=  0.10000D-05 Strict=F.
 Ernie:  7 primitive shells out of 220 were deleted.
 There are   183 symmetry adapted cartesian basis functions of A'  symmetry.
 There are   137 symmetry adapted cartesian basis functions of A"  symmetry.
 There are   158 symmetry adapted basis functions of A'  symmetry.
 There are   122 symmetry adapted basis functions of A"  symmetry.
   280 basis functions,   475 primitive gaussians,   320 cartesian basis functions
    25 alpha electrons       25 beta electrons
       nuclear repulsion energy       273.2804388411 Hartrees.
 IExCor= 2523 DFT=T Ex=TPSS Corr=TPSS ExCW=0 ScaHFX=  0.000000
 ScaDFX=  1.000000  1.000000  1.000000  1.000000 ScalE2=  1.000000  1.000000
 IRadAn=      0 IRanWt=     -1 IRanGd=            0 ICorTp=0 IEmpDi=  4
 NAtoms=   12 NActive=   12 NUniq=    8 SFac= 2.25D+00 NAtFMM=   60 NAOKFM=F Big=F
 Integral buffers will be    131072 words long.
 Raffenetti 2 integral format.
 Two-electron integral symmetry is turned on.
 Leave Link  301 at Fri Aug 27 21:14:58 2021, MaxMem= 17179869184 cpu:         1.7
 (Enter /public3/home/sc51754/softwares/g09e01/l302.exe)
 NPDir=0 NMtPBC=     1 NCelOv=     1 NCel=       1 NClECP=     1 NCelD=      1
         NCelK=      1 NCelE2=     1 NClLst=     1 CellRange=     0.0.
 One-electron integrals computed using PRISM.
 One-electron integral symmetry used in STVInt
 NBasis=   280 RedAO= T EigKep=  1.83D-04  NBF=   158   122
 NBsUse=   280 1.00D-06 EigRej= -1.00D+00 NBFU=   158   122
 Precomputing XC quadrature grid using
 IXCGrd= 4 IRadAn=           0 IRanWt=          -1 IRanGd=           0 AccXCQ= 0.00D+00.
 Generated NRdTot=       0 NPtTot=           0 NUsed=           0 NTot=          32
 NSgBfM=   320   320   320   320   320 MxSgAt=    12 MxSgA2=    12.
 Leave Link  302 at Fri Aug 27 21:14:59 2021, MaxMem= 17179869184 cpu:        38.5
 (Enter /public3/home/sc51754/softwares/g09e01/l303.exe)
 DipDrv:  MaxL=1.
 Leave Link  303 at Fri Aug 27 21:14:59 2021, MaxMem= 17179869184 cpu:        14.8
 (Enter /public3/home/sc51754/softwares/g09e01/l401.exe)
 ExpMin= 7.41D-02 ExpMax= 1.48D+04 ExpMxC= 5.05D+02 IAcc=2 IRadAn=         4 AccDes= 0.00D+00
 Harris functional with IExCor= 1009 and IRadAn=       4 diagonalized for initial guess.
 HarFok:  IExCor= 1009 AccDes= 0.00D+00 IRadAn=         4 IDoV= 1 UseB2=F ITyADJ=14
 ICtDFT=  3500011 ScaDFX=  1.000000  1.000000  1.000000  1.000000
 FoFCou: FMM=F IPFlag=           0 FMFlag=      100000 FMFlg1=           0
         NFxFlg=           0 DoJE=T BraDBF=F KetDBF=T FulRan=T
         wScrn=  0.000000 ICntrl=     500 IOpCl=  0 I1Cent=   200000004 NGrid=           0
         NMat0=    1 NMatS0=      1 NMatT0=    0 NMatD0=    1 NMtDS0=    0 NMtDT0=    0
 Petite list used in FoFCou.
 Harris En= -323.373742033016    
 JPrj=0 DoOrth=F DoCkMO=F.
 Initial guess orbital symmetries:
       Occupied  (A') (A') (A") (A') (A") (A') (A') (A') (A') (A')
                 (A") (A") (A') (A') (A") (A') (A') (A") (A') (A')
                 (A") (A') (A") (A") (A')
       Virtual   (A') (A") (A') (A') (A") (A') (A') (A") (A') (A')
                 (A") (A') (A') (A") (A") (A") (A') (A') (A") (A')
                 (A") (A') (A") (A') (A') (A') (A") (A') (A") (A')
                 (A') (A") (A') (A') (A') (A") (A') (A") (A") (A')
                 (A") (A') (A') (A') (A") (A") (A') (A") (A") (A')
                 (A') (A") (A") (A') (A') (A') (A') (A") (A') (A')
                 (A') (A") (A') (A') (A") (A") (A') (A') (A") (A')
                 (A") (A") (A") (A') (A") (A') (A') (A") (A') (A")
                 (A') (A') (A") (A") (A') (A') (A') (A') (A") (A')
                 (A") (A") (A') (A") (A") (A') (A') (A") (A') (A')
                 (A") (A') (A") (A") (A') (A") (A') (A') (A") (A')
                 (A') (A") (A') (A") (A") (A') (A') (A') (A") (A")
                 (A") (A') (A') (A") (A') (A") (A') (A") (A") (A')
                 (A') (A") (A') (A") (A') (A') (A') (A") (A') (A')
                 (A") (A") (A") (A') (A") (A') (A') (A') (A') (A")
                 (A') (A") (A') (A') (A") (A") (A') (A") (A") (A')
                 (A') (A") (A') (A") (A') (A') (A") (A") (A") (A")
                 (A') (A') (A") (A') (A') (A") (A") (A') (A') (A')
                 (A") (A') (A") (A') (A") (A') (A') (A") (A') (A")
                 (A") (A") (A') (A') (A") (A') (A") (A') (A") (A')
                 (A') (A') (A') (A") (A") (A") (A") (A') (A') (A')
                 (A') (A') (A") (A") (A") (A') (A") (A') (A") (A')
                 (A') (A") (A") (A') (A") (A") (A') (A") (A') (A")
                 (A') (A') (A") (A') (A') (A') (A") (A") (A") (A')
                 (A') (A') (A") (A') (A") (A') (A') (A") (A') (A')
                 (A") (A') (A") (A') (A')
 The electronic state of the initial guess is 1-A'.
 Leave Link  401 at Fri Aug 27 21:15:00 2021, MaxMem= 17179869184 cpu:        50.8
 (Enter /public3/home/sc51754/softwares/g09e01/l502.exe)
 Closed shell SCF:
 Using DIIS extrapolation, IDIIS=  1040.
 Integral symmetry usage will be decided dynamically.
 Keep J ints in memory in symmetry-blocked form, NReq=1161351758.
 IVT=      348938 IEndB=      348938 NGot= 17179869184 MDV= 16792355177
 LenX= 16792355177 LenY= 16792252336
 Requested convergence on RMS density matrix=1.00D-08 within 128 cycles.
 Requested convergence on MAX density matrix=1.00D-06.
 Requested convergence on             energy=1.00D-06.
 No special actions if energy rises.
 FoFCou: FMM=F IPFlag=           0 FMFlag=           0 FMFlg1=           0
         NFxFlg=           0 DoJE=F BraDBF=F KetDBF=F FulRan=T
         wScrn=  0.000000 ICntrl=     600 IOpCl=  0 I1Cent=           0 NGrid=           0
         NMat0=    1 NMatS0=  39340 NMatT0=    0 NMatD0=    1 NMtDS0=    0 NMtDT0=    0
 Petite list used in FoFCou.
 Integral accuracy reduced to 1.0D-05 until final iterations.

 Cycle   1  Pass 0  IDiag  1:
 E= -323.499647370898    
 DIIS: error= 3.03D-02 at cycle   1 NSaved=   1.
 NSaved= 1 IEnMin= 1 EnMin= -323.499647370898     IErMin= 1 ErrMin= 3.03D-02
 ErrMax= 3.03D-02  0.00D+00 EMaxC= 1.00D-01 BMatC= 1.95D-01 BMatP= 1.95D-01
 IDIUse=3 WtCom= 6.97D-01 WtEn= 3.03D-01
 Coeff-Com:  0.100D+01
 Coeff-En:   0.100D+01
 Coeff:      0.100D+01
 Gap=    -0.045 Goal=   None    Shift=    0.000
 GapD=   -0.045 DampG=0.250 DampE=0.500 DampFc=0.2500 IDamp=-1.
 Damping current iteration by 2.50D-01
 RMSDP=1.91D-02 MaxDP=2.54D+00              OVMax= 9.94D-01

 Cycle   2  Pass 0  IDiag  1:
 E= -323.412450281431     Delta-E=        0.087197089467 Rises=F Damp=T
 DIIS: error= 1.62D-02 at cycle   2 NSaved=   2.
 NSaved= 2 IEnMin= 1 EnMin= -323.499647370898     IErMin= 2 ErrMin= 1.62D-02
 ErrMax= 1.62D-02  0.00D+00 EMaxC= 1.00D-01 BMatC= 5.89D-02 BMatP= 1.95D-01
 IDIUse=3 WtCom= 8.38D-01 WtEn= 1.62D-01
 Coeff-Com:  0.213D+00 0.787D+00
 Coeff-En:   0.656D+00 0.344D+00
 Coeff:      0.285D+00 0.715D+00
 Gap=     0.017 Goal=   None    Shift=    0.000
 RMSDP=4.89D-03 MaxDP=6.30D-01 DE= 8.72D-02 OVMax= 8.68D-01

 Cycle   3  Pass 0  IDiag  1:
 E= -323.478379339005     Delta-E=       -0.065929057574 Rises=F Damp=F
 DIIS: error= 3.44D-02 at cycle   3 NSaved=   3.
 NSaved= 3 IEnMin= 1 EnMin= -323.499647370898     IErMin= 2 ErrMin= 1.62D-02
 ErrMax= 3.44D-02  0.00D+00 EMaxC= 1.00D-01 BMatC= 1.85D-01 BMatP= 5.89D-02
 IDIUse=2 WtCom= 0.00D+00 WtEn= 1.00D+00
 EnCoef did     3 forward-backward iterations
 Coeff-En:   0.257D+00 0.327D+00 0.415D+00
 Coeff:      0.257D+00 0.327D+00 0.415D+00
 Gap=     0.124 Goal=   None    Shift=    0.000
 RMSDP=3.49D-03 MaxDP=1.31D-01 DE=-6.59D-02 OVMax= 5.47D-01

 Cycle   4  Pass 0  IDiag  1:
 E= -323.398513459803     Delta-E=        0.079865879202 Rises=F Damp=F
 DIIS: error= 4.24D-02 at cycle   4 NSaved=   4.
 NSaved= 4 IEnMin= 1 EnMin= -323.499647370898     IErMin= 2 ErrMin= 1.62D-02
 ErrMax= 4.24D-02  0.00D+00 EMaxC= 1.00D-01 BMatC= 2.94D-01 BMatP= 5.89D-02
 IDIUse=2 WtCom= 0.00D+00 WtEn= 1.00D+00
 EnCoef did     4 forward-backward iterations
 Coeff-En:   0.186D+00 0.000D+00 0.411D+00 0.402D+00
 Coeff:      0.186D+00 0.000D+00 0.411D+00 0.402D+00
 Gap=     0.127 Goal=   None    Shift=    0.000
 RMSDP=2.33D-03 MaxDP=1.01D-01 DE= 7.99D-02 OVMax= 3.08D-01

 Cycle   5  Pass 0  IDiag  1:
 E= -323.681709558118     Delta-E=       -0.283196098315 Rises=F Damp=F
 DIIS: error= 5.40D-03 at cycle   5 NSaved=   5.
 NSaved= 5 IEnMin= 5 EnMin= -323.681709558118     IErMin= 5 ErrMin= 5.40D-03
 ErrMax= 5.40D-03  0.00D+00 EMaxC= 1.00D-01 BMatC= 7.42D-03 BMatP= 5.89D-02
 IDIUse=3 WtCom= 9.46D-01 WtEn= 5.40D-02
 Coeff-Com: -0.261D-01 0.145D+00 0.189D+00 0.965D-01 0.596D+00
 Coeff-En:   0.000D+00 0.000D+00 0.000D+00 0.000D+00 0.100D+01
 Coeff:     -0.247D-01 0.137D+00 0.179D+00 0.912D-01 0.617D+00
 Gap=     0.144 Goal=   None    Shift=    0.000
 RMSDP=3.80D-04 MaxDP=2.38D-02 DE=-2.83D-01 OVMax= 4.64D-02

 Cycle   6  Pass 0  IDiag  1:
 E= -323.684330222864     Delta-E=       -0.002620664746 Rises=F Damp=F
 DIIS: error= 3.99D-03 at cycle   6 NSaved=   6.
 NSaved= 6 IEnMin= 6 EnMin= -323.684330222864     IErMin= 6 ErrMin= 3.99D-03
 ErrMax= 3.99D-03  0.00D+00 EMaxC= 1.00D-01 BMatC= 3.38D-03 BMatP= 7.42D-03
 IDIUse=3 WtCom= 9.60D-01 WtEn= 3.99D-02
 Coeff-Com: -0.778D-01 0.966D-01 0.279D-01 0.389D-02 0.385D+00 0.564D+00
 Coeff-En:   0.000D+00 0.000D+00 0.000D+00 0.000D+00 0.354D+00 0.646D+00
 Coeff:     -0.747D-01 0.928D-01 0.268D-01 0.373D-02 0.384D+00 0.567D+00
 Gap=     0.141 Goal=   None    Shift=    0.000
 RMSDP=1.67D-04 MaxDP=8.92D-03 DE=-2.62D-03 OVMax= 1.85D-02

 Cycle   7  Pass 0  IDiag  1:
 E= -323.687531798912     Delta-E=       -0.003201576049 Rises=F Damp=F
 DIIS: error= 2.50D-03 at cycle   7 NSaved=   7.
 NSaved= 7 IEnMin= 7 EnMin= -323.687531798912     IErMin= 7 ErrMin= 2.50D-03
 ErrMax= 2.50D-03  0.00D+00 EMaxC= 1.00D-01 BMatC= 7.55D-04 BMatP= 3.38D-03
 IDIUse=3 WtCom= 9.75D-01 WtEn= 2.50D-02
 Coeff-Com: -0.535D-01 0.606D-01 0.126D-02 0.692D-02 0.201D+00 0.299D+00
 Coeff-Com:  0.485D+00
 Coeff-En:   0.000D+00 0.000D+00 0.000D+00 0.000D+00 0.000D+00 0.000D+00
 Coeff-En:   0.100D+01
 Coeff:     -0.522D-01 0.591D-01 0.123D-02 0.675D-02 0.196D+00 0.292D+00
 Coeff:      0.498D+00
 Gap=     0.138 Goal=   None    Shift=    0.000
 RMSDP=5.46D-05 MaxDP=2.20D-03 DE=-3.20D-03 OVMax= 6.12D-03

 Cycle   8  Pass 0  IDiag  1:
 E= -323.687969529171     Delta-E=       -0.000437730259 Rises=F Damp=F
 DIIS: error= 1.53D-03 at cycle   8 NSaved=   8.
 NSaved= 8 IEnMin= 8 EnMin= -323.687969529171     IErMin= 8 ErrMin= 1.53D-03
 ErrMax= 1.53D-03  0.00D+00 EMaxC= 1.00D-01 BMatC= 3.00D-04 BMatP= 7.55D-04
 IDIUse=3 WtCom= 9.85D-01 WtEn= 1.53D-02
 Coeff-Com: -0.289D-01 0.324D-01-0.899D-02 0.854D-02 0.592D-01 0.702D-01
 Coeff-Com:  0.322D+00 0.546D+00
 Coeff-En:   0.000D+00 0.000D+00 0.000D+00 0.000D+00 0.000D+00 0.000D+00
 Coeff-En:   0.000D+00 0.100D+01
 Coeff:     -0.285D-01 0.319D-01-0.885D-02 0.841D-02 0.583D-01 0.691D-01
 Coeff:      0.317D+00 0.553D+00
 Gap=     0.137 Goal=   None    Shift=    0.000
 RMSDP=4.53D-05 MaxDP=1.19D-03 DE=-4.38D-04 OVMax= 7.68D-03

 Cycle   9  Pass 0  IDiag  1:
 E= -323.688270750421     Delta-E=       -0.000301221250 Rises=F Damp=F
 DIIS: error= 7.78D-04 at cycle   9 NSaved=   9.
 NSaved= 9 IEnMin= 9 EnMin= -323.688270750421     IErMin= 9 ErrMin= 7.78D-04
 ErrMax= 7.78D-04  0.00D+00 EMaxC= 1.00D-01 BMatC= 8.06D-05 BMatP= 3.00D-04
 IDIUse=3 WtCom= 9.92D-01 WtEn= 7.78D-03
 Coeff-Com: -0.205D-02 0.243D-02-0.624D-02 0.466D-02-0.332D-01-0.801D-01
 Coeff-Com: -0.162D+00 0.378D+00 0.898D+00
 Coeff-En:   0.000D+00 0.000D+00 0.000D+00 0.000D+00 0.000D+00 0.000D+00
 Coeff-En:   0.000D+00 0.000D+00 0.100D+01
 Coeff:     -0.204D-02 0.241D-02-0.619D-02 0.462D-02-0.329D-01-0.795D-01
 Coeff:     -0.160D+00 0.376D+00 0.898D+00
 Gap=     0.135 Goal=   None    Shift=    0.000
 RMSDP=3.67D-05 MaxDP=1.41D-03 DE=-3.01D-04 OVMax= 4.95D-03

 Cycle  10  Pass 0  IDiag  1:
 E= -323.688348252360     Delta-E=       -0.000077501939 Rises=F Damp=F
 DIIS: error= 8.46D-05 at cycle  10 NSaved=  10.
 NSaved=10 IEnMin=10 EnMin= -323.688348252360     IErMin=10 ErrMin= 8.46D-05
 ErrMax= 8.46D-05  0.00D+00 EMaxC= 1.00D-01 BMatC= 2.10D-06 BMatP= 8.06D-05
 IDIUse=1 WtCom= 1.00D+00 WtEn= 0.00D+00
 Coeff-Com:  0.328D-03-0.161D-03-0.310D-02 0.245D-02-0.223D-01-0.515D-01
 Coeff-Com: -0.127D+00 0.189D+00 0.559D+00 0.453D+00
 Coeff:      0.328D-03-0.161D-03-0.310D-02 0.245D-02-0.223D-01-0.515D-01
 Coeff:     -0.127D+00 0.189D+00 0.559D+00 0.453D+00
 Gap=     0.135 Goal=   None    Shift=    0.000
 RMSDP=3.41D-06 MaxDP=2.44D-04 DE=-7.75D-05 OVMax= 4.60D-04

 Initial convergence to 1.0D-05 achieved.  Increase integral accuracy.
 Cycle  11  Pass 1  IDiag  1:
 E= -323.688445531530     Delta-E=       -0.000097279170 Rises=F Damp=F
 DIIS: error= 3.33D-05 at cycle   1 NSaved=   1.
 NSaved= 1 IEnMin= 1 EnMin= -323.688445531530     IErMin= 1 ErrMin= 3.33D-05
 ErrMax= 3.33D-05  0.00D+00 EMaxC= 1.00D-01 BMatC= 3.85D-07 BMatP= 3.85D-07
 IDIUse=1 WtCom= 1.00D+00 WtEn= 0.00D+00
 Coeff-Com:  0.100D+01
 Coeff:      0.100D+01
 Gap=     0.135 Goal=   None    Shift=    0.000
 RMSDP=3.41D-06 MaxDP=2.44D-04 DE=-9.73D-05 OVMax= 6.32D-04

 Cycle  12  Pass 1  IDiag  1:
 E= -323.688445357973     Delta-E=        0.000000173557 Rises=F Damp=F
 DIIS: error= 5.01D-05 at cycle   2 NSaved=   2.
 NSaved= 2 IEnMin= 1 EnMin= -323.688445531530     IErMin= 1 ErrMin= 3.33D-05
 ErrMax= 5.01D-05  0.00D+00 EMaxC= 1.00D-01 BMatC= 4.93D-07 BMatP= 3.85D-07
 IDIUse=1 WtCom= 1.00D+00 WtEn= 0.00D+00
 Coeff-Com:  0.545D+00 0.455D+00
 Coeff:      0.545D+00 0.455D+00
 Gap=     0.135 Goal=   None    Shift=    0.000
 RMSDP=4.53D-06 MaxDP=1.71D-04 DE= 1.74D-07 OVMax= 7.80D-04

 Cycle  13  Pass 1  IDiag  1:
 E= -323.688445455369     Delta-E=       -0.000000097396 Rises=F Damp=F
 DIIS: error= 5.56D-05 at cycle   3 NSaved=   3.
 NSaved= 3 IEnMin= 1 EnMin= -323.688445531530     IErMin= 1 ErrMin= 3.33D-05
 ErrMax= 5.56D-05  0.00D+00 EMaxC= 1.00D-01 BMatC= 4.28D-07 BMatP= 3.85D-07
 IDIUse=1 WtCom= 1.00D+00 WtEn= 0.00D+00
 Coeff-Com:  0.924D-01 0.452D+00 0.456D+00
 Coeff:      0.924D-01 0.452D+00 0.456D+00
 Gap=     0.135 Goal=   None    Shift=    0.000
 RMSDP=2.47D-06 MaxDP=1.09D-04 DE=-9.74D-08 OVMax= 4.66D-04

 Cycle  14  Pass 1  IDiag  1:
 E= -323.688445863360     Delta-E=       -0.000000407991 Rises=F Damp=F
 DIIS: error= 1.45D-05 at cycle   4 NSaved=   4.
 NSaved= 4 IEnMin= 4 EnMin= -323.688445863360     IErMin= 4 ErrMin= 1.45D-05
 ErrMax= 1.45D-05  0.00D+00 EMaxC= 1.00D-01 BMatC= 5.05D-08 BMatP= 3.85D-07
 IDIUse=1 WtCom= 1.00D+00 WtEn= 0.00D+00
 Coeff-Com: -0.116D-01 0.281D+00 0.334D+00 0.397D+00
 Coeff:     -0.116D-01 0.281D+00 0.334D+00 0.397D+00
 Gap=     0.135 Goal=   None    Shift=    0.000
 RMSDP=5.35D-07 MaxDP=2.85D-05 DE=-4.08D-07 OVMax= 6.97D-05

 Cycle  15  Pass 1  IDiag  1:
 E= -323.688445903544     Delta-E=       -0.000000040184 Rises=F Damp=F
 DIIS: error= 2.17D-06 at cycle   5 NSaved=   5.
 NSaved= 5 IEnMin= 5 EnMin= -323.688445903544     IErMin= 5 ErrMin= 2.17D-06
 ErrMax= 2.17D-06  0.00D+00 EMaxC= 1.00D-01 BMatC= 1.04D-09 BMatP= 5.05D-08
 IDIUse=1 WtCom= 1.00D+00 WtEn= 0.00D+00
 Coeff-Com: -0.963D-02 0.148D+00 0.176D+00 0.233D+00 0.453D+00
 Coeff:     -0.963D-02 0.148D+00 0.176D+00 0.233D+00 0.453D+00
 Gap=     0.135 Goal=   None    Shift=    0.000
 RMSDP=1.07D-07 MaxDP=4.01D-06 DE=-4.02D-08 OVMax= 1.47D-05

 Cycle  16  Pass 1  IDiag  1:
 E= -323.688445904160     Delta-E=       -0.000000000616 Rises=F Damp=F
 DIIS: error= 1.31D-06 at cycle   6 NSaved=   6.
 NSaved= 6 IEnMin= 6 EnMin= -323.688445904160     IErMin= 6 ErrMin= 1.31D-06
 ErrMax= 1.31D-06  0.00D+00 EMaxC= 1.00D-01 BMatC= 2.97D-10 BMatP= 1.04D-09
 IDIUse=1 WtCom= 1.00D+00 WtEn= 0.00D+00
 Coeff-Com: -0.515D-02 0.640D-01 0.741D-01 0.110D+00 0.340D+00 0.417D+00
 Coeff:     -0.515D-02 0.640D-01 0.741D-01 0.110D+00 0.340D+00 0.417D+00
 Gap=     0.135 Goal=   None    Shift=    0.000
 RMSDP=4.61D-08 MaxDP=2.06D-06 DE=-6.16D-10 OVMax= 5.99D-06

 Cycle  17  Pass 1  IDiag  1:
 E= -323.688445904451     Delta-E=       -0.000000000291 Rises=F Damp=F
 DIIS: error= 1.14D-07 at cycle   7 NSaved=   7.
 NSaved= 7 IEnMin= 7 EnMin= -323.688445904451     IErMin= 7 ErrMin= 1.14D-07
 ErrMax= 1.14D-07  0.00D+00 EMaxC= 1.00D-01 BMatC= 3.01D-12 BMatP= 2.97D-10
 IDIUse=1 WtCom= 1.00D+00 WtEn= 0.00D+00
 Coeff-Com: -0.870D-03 0.932D-02 0.103D-01 0.178D-01 0.691D-01 0.143D+00
 Coeff-Com:  0.752D+00
 Coeff:     -0.870D-03 0.932D-02 0.103D-01 0.178D-01 0.691D-01 0.143D+00
 Coeff:      0.752D+00
 Gap=     0.135 Goal=   None    Shift=    0.000
 RMSDP=7.82D-09 MaxDP=2.14D-07 DE=-2.91D-10 OVMax= 6.75D-07

 SCF Done:  E(RTPSS-TPSS) =  -323.688445904     A.U. after   17 cycles
            NFock= 17  Conv=0.78D-08     -V/T= 2.0042
 KE= 3.223474100788D+02 PE=-1.301754657496D+03 EE= 3.824383626717D+02
 Leave Link  502 at Fri Aug 27 21:15:08 2021, MaxMem= 17179869184 cpu:       305.3
 (Enter /public3/home/sc51754/softwares/g09e01/l601.exe)
 Copying SCF densities to generalized density rwf, IOpCl= 0 IROHF=0.

 **********************************************************************

            Population analysis using the SCF density.

 **********************************************************************

 Orbital symmetries:
       Occupied  (A') (A') (A') (A") (A') (A") (A') (A') (A') (A')
                 (A") (A") (A') (A') (A") (A') (A") (A') (A') (A")
                 (A') (A') (A") (A') (A")
       Virtual   (A') (A") (A') (A") (A') (A") (A') (A') (A') (A')
                 (A') (A") (A') (A") (A") (A") (A') (A') (A") (A")
                 (A') (A') (A') (A") (A') (A') (A") (A') (A") (A')
                 (A') (A') (A") (A') (A') (A') (A") (A") (A") (A")
                 (A') (A') (A') (A") (A') (A") (A') (A") (A") (A')
                 (A') (A") (A') (A") (A') (A') (A') (A") (A') (A')
                 (A') (A") (A') (A") (A') (A") (A') (A') (A") (A")
                 (A') (A') (A") (A") (A") (A') (A') (A") (A") (A')
                 (A') (A') (A") (A") (A') (A') (A') (A') (A') (A")
                 (A") (A") (A') (A') (A") (A") (A') (A') (A") (A')
                 (A") (A') (A") (A") (A') (A") (A') (A') (A") (A')
                 (A') (A") (A') (A") (A") (A') (A') (A') (A") (A")
                 (A") (A') (A") (A') (A') (A") (A') (A") (A') (A')
                 (A") (A") (A') (A") (A') (A') (A') (A") (A') (A')
                 (A") (A") (A') (A") (A") (A') (A') (A') (A') (A")
                 (A') (A") (A') (A") (A') (A') (A") (A") (A") (A')
                 (A') (A') (A") (A") (A") (A') (A") (A') (A") (A")
                 (A') (A') (A") (A') (A') (A") (A") (A') (A') (A')
                 (A") (A') (A') (A") (A') (A") (A') (A') (A") (A")
                 (A") (A') (A") (A') (A") (A') (A') (A") (A') (A")
                 (A') (A') (A') (A") (A") (A") (A') (A") (A') (A')
                 (A') (A") (A') (A") (A") (A') (A") (A') (A') (A")
                 (A') (A") (A") (A") (A') (A") (A') (A") (A') (A')
                 (A") (A') (A") (A') (A') (A') (A") (A") (A") (A')
                 (A') (A') (A") (A') (A") (A') (A') (A") (A') (A')
                 (A") (A') (A") (A') (A')
 The electronic state is 1-A'.
 Alpha  occ. eigenvalues --  -18.82613 -14.17863 -10.05256 -10.05256 -10.04641
 Alpha  occ. eigenvalues --   -9.99432  -9.99432  -0.93768  -0.92459  -0.73460
 Alpha  occ. eigenvalues --   -0.73404  -0.60176  -0.57831  -0.54762  -0.46181
 Alpha  occ. eigenvalues --   -0.44069  -0.41806  -0.40381  -0.39849  -0.34253
 Alpha  occ. eigenvalues --   -0.33786  -0.32747  -0.26275  -0.20319  -0.18574
 Alpha virt. eigenvalues --   -0.05090  -0.05071  -0.02519   0.02019   0.03332
 Alpha virt. eigenvalues --    0.06349   0.06566   0.09019   0.11080   0.13766
 Alpha virt. eigenvalues --    0.13971   0.14029   0.14807   0.17388   0.17581
 Alpha virt. eigenvalues --    0.20693   0.20894   0.20985   0.25703   0.26034
 Alpha virt. eigenvalues --    0.26036   0.27511   0.27713   0.27831   0.28457
 Alpha virt. eigenvalues --    0.29754   0.31847   0.32652   0.33680   0.38009
 Alpha virt. eigenvalues --    0.40927   0.41652   0.42770   0.43516   0.46465
 Alpha virt. eigenvalues --    0.47455   0.48127   0.52559   0.53178   0.55270
 Alpha virt. eigenvalues --    0.55598   0.57460   0.61579   0.62999   0.67294
 Alpha virt. eigenvalues --    0.68729   0.69244   0.71802   0.74379   0.77350
 Alpha virt. eigenvalues --    0.77452   0.81399   0.86227   0.86899   0.87135
 Alpha virt. eigenvalues --    0.91705   0.94873   0.95175   0.96440   1.02819
 Alpha virt. eigenvalues --    1.06617   1.07805   1.08043   1.08052   1.10291
 Alpha virt. eigenvalues --    1.14145   1.15414   1.16361   1.17638   1.18942
 Alpha virt. eigenvalues --    1.21134   1.21650   1.22360   1.24868   1.29796
 Alpha virt. eigenvalues --    1.30537   1.30683   1.38321   1.39097   1.40969
 Alpha virt. eigenvalues --    1.41976   1.43049   1.43261   1.43722   1.51030
 Alpha virt. eigenvalues --    1.52815   1.55333   1.59694   1.61311   1.61673
 Alpha virt. eigenvalues --    1.63295   1.65258   1.70742   1.72638   1.73370
 Alpha virt. eigenvalues --    1.73569   1.78286   1.78463   1.79831   1.85653
 Alpha virt. eigenvalues --    1.87041   1.90635   1.92514   1.97142   1.99403
 Alpha virt. eigenvalues --    1.99958   2.06663   2.08852   2.13367   2.15815
 Alpha virt. eigenvalues --    2.16605   2.21488   2.22540   2.24025   2.36663
 Alpha virt. eigenvalues --    2.37740   2.46430   2.49005   2.62606   2.76683
 Alpha virt. eigenvalues --    2.83486   2.89479   2.91795   2.92738   3.09156
 Alpha virt. eigenvalues --    3.15123   3.17667   3.21078   3.23377   3.23891
 Alpha virt. eigenvalues --    3.24072   3.28800   3.30456   3.33687   3.34531
 Alpha virt. eigenvalues --    3.43658   3.45680   3.49286   3.50970   3.52742
 Alpha virt. eigenvalues --    3.59043   3.63456   3.64005   3.65712   3.65960
 Alpha virt. eigenvalues --    3.67093   3.69251   3.76831   3.83173   3.89025
 Alpha virt. eigenvalues --    3.93955   3.94722   3.95847   3.96240   3.96742
 Alpha virt. eigenvalues --    4.01326   4.02182   4.03051   4.07165   4.07947
 Alpha virt. eigenvalues --    4.10109   4.11961   4.12434   4.15579   4.16754
 Alpha virt. eigenvalues --    4.17750   4.18869   4.20204   4.22070   4.23737
 Alpha virt. eigenvalues --    4.25072   4.25967   4.27014   4.29907   4.31312
 Alpha virt. eigenvalues --    4.31480   4.33597   4.35077   4.37974   4.38943
 Alpha virt. eigenvalues --    4.41911   4.42545   4.47234   4.48255   4.48541
 Alpha virt. eigenvalues --    4.50489   4.53777   4.56161   4.57159   4.57441
 Alpha virt. eigenvalues --    4.63039   4.64255   4.64585   4.66553   4.72562
 Alpha virt. eigenvalues --    4.73779   4.77127   4.77589   4.77818   4.78601
 Alpha virt. eigenvalues --    4.89416   4.94006   4.94477   4.95364   4.96012
 Alpha virt. eigenvalues --    4.99958   5.07509   5.08977   5.13841   5.20112
 Alpha virt. eigenvalues --    5.22011   5.24193   5.26497   5.28390   5.31659
 Alpha virt. eigenvalues --    5.36246   5.38257   5.43898   5.47523   5.48408
 Alpha virt. eigenvalues --    5.49402   5.53577   5.58018   5.63621   5.65189
 Alpha virt. eigenvalues --    5.67939   5.72456   5.73837   5.76505   5.81871
 Alpha virt. eigenvalues --    5.82299   5.92418   5.97029   5.97584   6.02198
 Alpha virt. eigenvalues --    6.10209   6.12610   6.12733   6.17945   6.25861
 Alpha virt. eigenvalues --    6.40611   6.50257   6.54348   6.57557   6.83350
 Alpha virt. eigenvalues --    6.88752   6.97547   7.26604   9.48672  12.40143
 Alpha virt. eigenvalues --   12.56818  15.31614  16.98151  18.43283  22.62237
          Condensed to atoms (all electrons):
               1          2          3          4          5          6
     1  C    4.711118   0.533942  -0.029328  -0.038889  -0.072353   0.385015
     2  C    0.533942   5.008869   0.386182  -0.017427  -0.038889  -0.056170
     3  C   -0.029328   0.386182   4.419435   0.386182  -0.029328  -0.010398
     4  C   -0.038889  -0.017427   0.386182   5.008869   0.533942  -0.056170
     5  C   -0.072353  -0.038889  -0.029328   0.533942   4.711118   0.385015
     6  N    0.385015  -0.056170  -0.010398  -0.056170   0.385015   6.297086
     7  H    0.390881  -0.010572   0.004120  -0.006207   0.004128  -0.034996
     8  H   -0.037864   0.420440  -0.035082   0.016602  -0.002051   0.005295
     9  H   -0.002051   0.016602  -0.035082   0.420440  -0.037864   0.005295
    10  H    0.004128  -0.006207   0.004120  -0.010572   0.390881  -0.034996
    11  O    0.009767  -0.087730   0.572586  -0.087730   0.009767   0.000667
    12  H   -0.027190   0.006515  -0.000892   0.006515  -0.027190   0.409341
               7          8          9         10         11         12
     1  C    0.390881  -0.037864  -0.002051   0.004128   0.009767  -0.027190
     2  C   -0.010572   0.420440   0.016602  -0.006207  -0.087730   0.006515
     3  C    0.004120  -0.035082  -0.035082   0.004120   0.572586  -0.000892
     4  C   -0.006207   0.016602   0.420440  -0.010572  -0.087730   0.006515
     5  C    0.004128  -0.002051  -0.037864   0.390881   0.009767  -0.027190
     6  N   -0.034996   0.005295   0.005295  -0.034996   0.000667   0.409341
     7  H    0.604239  -0.007714   0.000381  -0.001596  -0.000964  -0.007201
     8  H   -0.007714   0.591359  -0.000172   0.000381   0.011479  -0.000597
     9  H    0.000381  -0.000172   0.591359  -0.007714   0.011479  -0.000597
    10  H   -0.001596   0.000381  -0.007714   0.604239  -0.000964  -0.007201
    11  O   -0.000964   0.011479   0.011479  -0.000964   8.029040   0.000084
    12  H   -0.007201  -0.000597  -0.000597  -0.007201   0.000084   0.494824
 Mulliken charges:
               1
     1  C    0.172825
     2  C   -0.155555
     3  C    0.367484
     4  C   -0.155555
     5  C    0.172825
     6  N   -0.294985
     7  H    0.065502
     8  H    0.037924
     9  H    0.037924
    10  H    0.065502
    11  O   -0.467480
    12  H    0.153588
 Sum of Mulliken charges =  -0.00000
 Mulliken charges with hydrogens summed into heavy atoms:
               1
     1  C    0.238327
     2  C   -0.117630
     3  C    0.367484
     4  C   -0.117630
     5  C    0.238327
     6  N   -0.141396
    11  O   -0.467480
 Electronic spatial extent (au):  <R**2>=            641.0634
 Charge=             -0.0000 electrons
 Dipole moment (field-independent basis, Debye):
    X=              0.0013    Y=              6.8514    Z=              0.0000  Tot=              6.8514
 Quadrupole moment (field-independent basis, Debye-Ang):
   XX=            -43.0117   YY=            -42.3366   ZZ=            -34.7500
   XY=             -0.0053   XZ=              0.0000   YZ=              0.0000
 Traceless Quadrupole moment (field-independent basis, Debye-Ang):
   XX=             -2.9790   YY=             -2.3038   ZZ=              5.2828
   XY=             -0.0053   XZ=              0.0000   YZ=              0.0000
 Octapole moment (field-independent basis, Debye-Ang**2):
  XXX=             -0.0037  YYY=             56.5689  ZZZ=             -0.0000  XYY=              0.0022
  XXY=             -2.1653  XXZ=              0.0000  XZZ=              0.0086  YZZ=              3.4289
  YYZ=             -0.0000  XYZ=              0.0000
 Hexadecapole moment (field-independent basis, Debye-Ang**3):
 XXXX=            -46.8603 YYYY=           -493.8724 ZZZZ=           -266.2645 XXXY=             -0.0319
 XXXZ=             -0.0000 YYYX=             -0.0733 YYYZ=             -0.0000 ZZZX=              0.0000
 ZZZY=              0.0000 XXYY=            -92.2905 XXZZ=            -64.3756 YYZZ=           -118.1130
 XXYZ=             -0.0000 YYXZ=              0.0000 ZZXY=             -0.0068
 N-N= 2.732804388411D+02 E-N=-1.301754631677D+03  KE= 3.223474100788D+02
 Symmetry A'   KE= 2.364761261243D+02
 Symmetry A"   KE= 8.587128395446D+01
 No NMR shielding tensors so no spin-rotation constants.
 Leave Link  601 at Fri Aug 27 21:15:10 2021, MaxMem= 17179869184 cpu:        81.7
 (Enter /public3/home/sc51754/softwares/g09e01/l701.exe)
 Compute integral first derivatives.
 ... and contract with generalized density number  0.
 Leave Link  701 at Fri Aug 27 21:15:11 2021, MaxMem= 17179869184 cpu:        49.7
 (Enter /public3/home/sc51754/softwares/g09e01/l702.exe)
 L702 exits ... SP integral derivatives will be done elsewhere.
 Leave Link  702 at Fri Aug 27 21:15:11 2021, MaxMem= 17179869184 cpu:         0.3
 (Enter /public3/home/sc51754/softwares/g09e01/l703.exe)
 Compute integral first derivatives, UseDBF=F ICtDFT=           0.
 Integral derivatives from FoFJK, PRISM(SPDF).
 Calling FoFJK, ICntrl=      2527 FMM=F ISym2X=1 I1Cent= 0 IOpClX= 0 NMat=1 NMatS=1 NMatT=0.
 FoFJK:  IHMeth= 1 ICntrl=    2527 DoSepK=F KAlg= 0 I1Cent=   0 FoldK=F
 IRaf=         0 NMat=   1 IRICut=       1 DoRegI=T DoRafI=F ISym2E= 1.
 FoFCou: FMM=F IPFlag=           0 FMFlag=      100000 FMFlg1=         800
         NFxFlg=           0 DoJE=F BraDBF=F KetDBF=F FulRan=T
         wScrn=  0.000000 ICntrl=    2527 IOpCl=  0 I1Cent=           0 NGrid=           0
         NMat0=    1 NMatS0=      1 NMatT0=    0 NMatD0=    1 NMtDS0=    0 NMtDT0=    0
 Petite list used in FoFCou.
 Leave Link  703 at Fri Aug 27 21:15:13 2021, MaxMem= 17179869184 cpu:       116.1
 (Enter /public3/home/sc51754/softwares/g09e01/l716.exe)
 Dipole        = 5.01238096D-04 2.69553850D+00 8.86536813D-16
 ***** Axes restored to original set *****
 -------------------------------------------------------------------
 Center     Atomic                   Forces (Hartrees/Bohr)
 Number     Number              X              Y              Z
 -------------------------------------------------------------------
      1        6          -0.000006993   -0.000797542    0.001050070
      2        6           0.000000149    0.001890869   -0.002026553
      3        6          -0.000017622   -0.008278599    0.000000000
      4        6           0.000000149    0.001890869    0.002026553
      5        6          -0.000006993   -0.000797542   -0.001050070
      6        7           0.000000278    0.001589734    0.000000000
      7        1           0.000013685   -0.000172023   -0.000525329
      8        1           0.000005971   -0.000411246    0.000113111
      9        1           0.000005971   -0.000411246   -0.000113111
     10        1           0.000013685   -0.000172023    0.000525329
     11        8           0.000003969    0.007032456   -0.000000000
     12        1          -0.000012248   -0.001363706   -0.000000000
 -------------------------------------------------------------------
 Cartesian Forces:  Max     0.008278599 RMS     0.001987430
 Leave Link  716 at Fri Aug 27 21:15:13 2021, MaxMem= 17179869184 cpu:         0.3
 (Enter /public3/home/sc51754/softwares/g09e01/l103.exe)

 GradGradGradGradGradGradGradGradGradGradGradGradGradGradGradGradGradGrad
 Berny optimization.
 FormGI is forming the generalized inverse of G from B-inverse, IUseBI=4.
 Internal  Forces:  Max     0.007032457 RMS     0.001044511
 Search for a local minimum.
 Step number   1 out of a maximum of   64
 All quantities printed in internal units (Hartrees-Bohrs-Radians)
 RMS Force = .10445D-02 SwitMx=.10000D-02 MixMth= 1
 Mixed Optimization -- RFO/linear search
 Second derivative matrix not updated -- first step.
 ITU=  0
     Eigenvalues ---    0.01179   0.01465   0.01838   0.01956   0.02032
     Eigenvalues ---    0.02219   0.02234   0.02399   0.02441   0.16000
     Eigenvalues ---    0.16000   0.16000   0.16000   0.16000   0.22000
     Eigenvalues ---    0.22000   0.23391   0.25000   0.34645   0.35229
     Eigenvalues ---    0.35431   0.35431   0.35528   0.35528   0.46397
     Eigenvalues ---    0.47941   0.48075   0.51510   0.53792   0.89549
 RFO step:  Lambda=-8.57206637D-05 EMin= 1.17876314D-02
 Linear search not attempted -- first point.
 Iteration  1 RMS(Cart)=  0.00179751 RMS(Int)=  0.00000153
 Iteration  2 RMS(Cart)=  0.00000166 RMS(Int)=  0.00000022
 Iteration  3 RMS(Cart)=  0.00000000 RMS(Int)=  0.00000022
 ITry= 1 IFail=0 DXMaxC= 8.36D-03 DCOld= 1.00D+10 DXMaxT= 3.00D-01 DXLimC= 3.00D+00 Rises=F
 ClnCor:  largest displacement from symmetrization is 1.28D-11 for atom    10.
 Variable       Old X    -DE/DX   Delta X   Delta X   Delta X     New X
                                 (Linear)    (Quad)   (Total)
    R1        2.56220   0.00084   0.00000   0.00156   0.00156   2.56376
    R2        2.59705  -0.00025   0.00000  -0.00043  -0.00043   2.59662
    R3        2.04981  -0.00033   0.00000  -0.00094  -0.00094   2.04887
    R4        2.77562  -0.00131   0.00000  -0.00376  -0.00376   2.77186
    R5        2.04825  -0.00010   0.00000  -0.00028  -0.00028   2.04798
    R6        2.77562  -0.00131   0.00000  -0.00376  -0.00376   2.77186
    R7        2.33142   0.00703   0.00000   0.00785   0.00785   2.33927
    R8        2.56220   0.00084   0.00000   0.00156   0.00156   2.56376
    R9        2.04825  -0.00010   0.00000  -0.00028  -0.00028   2.04798
   R10        2.59705  -0.00025   0.00000  -0.00043  -0.00043   2.59662
   R11        2.04981  -0.00033   0.00000  -0.00094  -0.00094   2.04887
   R12        1.90386   0.00136   0.00000   0.00294   0.00294   1.90680
    A1        2.11471  -0.00033   0.00000  -0.00135  -0.00135   2.11336
    A2        2.15142   0.00062   0.00000   0.00350   0.00350   2.15491
    A3        2.01706  -0.00029   0.00000  -0.00214  -0.00215   2.01492
    A4        2.12519   0.00041   0.00000   0.00167   0.00167   2.12686
    A5        2.09805  -0.00063   0.00000  -0.00349  -0.00349   2.09457
    A6        2.05994   0.00022   0.00000   0.00182   0.00182   2.06176
    A7        1.98154  -0.00009   0.00000  -0.00069  -0.00069   1.98084
    A8        2.15082   0.00004   0.00000   0.00035   0.00035   2.15117
    A9        2.15082   0.00004   0.00000   0.00035   0.00035   2.15117
   A10        2.12519   0.00041   0.00000   0.00167   0.00167   2.12686
   A11        2.05994   0.00022   0.00000   0.00182   0.00182   2.06176
   A12        2.09805  -0.00063   0.00000  -0.00349  -0.00349   2.09457
   A13        2.11471  -0.00033   0.00000  -0.00135  -0.00135   2.11336
   A14        2.15142   0.00062   0.00000   0.00350   0.00350   2.15491
   A15        2.01706  -0.00029   0.00000  -0.00214  -0.00215   2.01492
   A16        2.10503  -0.00006   0.00000   0.00007   0.00007   2.10510
   A17        2.08908   0.00003   0.00000  -0.00003  -0.00003   2.08904
   A18        2.08908   0.00003   0.00000  -0.00003  -0.00003   2.08904
    D1       -0.00015   0.00000   0.00000   0.00009   0.00009  -0.00006
    D2        3.14133   0.00000   0.00000   0.00019   0.00019   3.14153
    D3       -3.14143  -0.00000   0.00000  -0.00015  -0.00015  -3.14157
    D4        0.00006  -0.00000   0.00000  -0.00004  -0.00004   0.00002
    D5       -0.00035   0.00001   0.00000   0.00036   0.00036   0.00001
    D6        3.14089   0.00000   0.00000   0.00015   0.00016   3.14104
    D7        3.14095   0.00001   0.00000   0.00058   0.00058   3.14153
    D8       -0.00100   0.00001   0.00000   0.00038   0.00038  -0.00063
    D9        0.00059  -0.00001   0.00000  -0.00049  -0.00049   0.00010
   D10       -3.14124   0.00000   0.00000   0.00013   0.00013  -3.14111
   D11       -3.14090  -0.00001   0.00000  -0.00059  -0.00059  -3.14149
   D12        0.00046  -0.00000   0.00000   0.00002   0.00002   0.00048
   D13       -0.00059   0.00001   0.00000   0.00049   0.00049  -0.00010
   D14        3.14090   0.00001   0.00000   0.00059   0.00059   3.14149
   D15        3.14124  -0.00000   0.00000  -0.00013  -0.00013   3.14111
   D16       -0.00046   0.00000   0.00000  -0.00002  -0.00002  -0.00048
   D17        0.00015  -0.00000   0.00000  -0.00009  -0.00009   0.00006
   D18        3.14143   0.00000   0.00000   0.00015   0.00015   3.14157
   D19       -3.14133  -0.00000   0.00000  -0.00019  -0.00019  -3.14153
   D20       -0.00006   0.00000   0.00000   0.00004   0.00004  -0.00002
   D21        0.00035  -0.00001   0.00000  -0.00036  -0.00036  -0.00001
   D22       -3.14089  -0.00000   0.00000  -0.00015  -0.00016  -3.14104
   D23       -3.14095  -0.00001   0.00000  -0.00058  -0.00058  -3.14153
   D24        0.00100  -0.00001   0.00000  -0.00038  -0.00038   0.00063
         Item               Value     Threshold  Converged?
 Maximum Force            0.007032     0.000450     NO 
 RMS     Force            0.001045     0.000300     NO 
 Maximum Displacement     0.008363     0.001800     NO 
 RMS     Displacement     0.001798     0.001200     NO 
 Predicted change in Energy=-4.286794D-05
 Lowest energy point so far.  Saving SCF results.
 GradGradGradGradGradGradGradGradGradGradGradGradGradGradGradGradGradGrad

 Leave Link  103 at Fri Aug 27 21:15:14 2021, MaxMem= 17179869184 cpu:        29.8
 (Enter /public3/home/sc51754/softwares/g09e01/l202.exe)
                          Input orientation:                          
 ---------------------------------------------------------------------
 Center     Atomic      Atomic             Coordinates (Angstroms)
 Number     Number       Type             X           Y           Z
 ---------------------------------------------------------------------
      1          6           0       -0.000218   -1.048800    1.193643
      2          6           0       -0.000210    0.307483    1.226626
      3          6           0       -0.000135    1.111786    0.000000
      4          6           0       -0.000210    0.307483   -1.226626
      5          6           0       -0.000218   -1.048800   -1.193643
      6          7           0       -0.000227   -1.729459   -0.000000
      7          1           0       -0.000291   -1.668516    2.083290
      8          1           0       -0.000262    0.826539    2.177982
      9          1           0       -0.000262    0.826539   -2.177982
     10          1           0       -0.000291   -1.668516   -2.083290
     11          8           0        0.000371    2.349673    0.000000
     12          1           0        0.000249   -2.738494   -0.000000
 ---------------------------------------------------------------------
                    Distance matrix (angstroms):
                    1          2          3          4          5
     1  C    0.000000
     2  C    1.356685   0.000000
     3  C    2.468384   1.466804   0.000000
     4  C    2.774384   2.453252   1.466804   0.000000
     5  C    2.387286   2.774384   2.468384   1.356685   0.000000
     6  N    1.374074   2.377760   2.841245   2.377760   1.374074
     7  H    1.084214   2.153705   3.474216   3.854882   3.335017
     8  H    2.117976   1.083743   2.196582   3.443948   3.858077
     9  H    3.858077   3.443948   2.196582   1.083743   2.117976
    10  H    3.335017   3.854882   3.474216   2.153705   1.084214
    11  O    3.602001   2.382258   1.237887   2.382258   3.602001
    12  H    2.068779   3.283685   3.850280   3.283685   2.068779
                    6          7          8          9         10
     6  N    0.000000
     7  H    2.084182   0.000000
     8  H    3.358085   2.496851   0.000000
     9  H    3.358085   4.937990   4.355965   0.000000
    10  H    2.084182   4.166581   4.937990   2.496851   0.000000
    11  O    4.079132   4.526140   2.657733   2.657733   4.526140
    12  H    1.009035   2.341997   4.177687   4.177687   2.341997
                   11         12
    11  O    0.000000
    12  H    5.088167   0.000000
 Stoichiometry    C5H5NO
 Framework group  CS[SG(CHNO),X(C4H4)]
 Deg. of freedom    17
 Full point group                 CS      NOp   2
 RotChk:  IX=3 Diff= 7.89D-06
 Largest Abelian subgroup         CS      NOp   2
 Largest concise Abelian subgroup CS      NOp   2
                         Standard orientation:                         
 ---------------------------------------------------------------------
 Center     Atomic      Atomic             Coordinates (Angstroms)
 Number     Number       Type             X           Y           Z
 ---------------------------------------------------------------------
      1          6           0        0.000103    1.049673    1.193643
      2          6           0        0.000103   -0.306610    1.226626
      3          6           0        0.000032   -1.110913   -0.000000
      4          6           0        0.000103   -0.306610   -1.226626
      5          6           0        0.000103    1.049673   -1.193643
      6          7           0        0.000109    1.730332    0.000000
      7          1           0        0.000173    1.669389    2.083290
      8          1           0        0.000159   -0.825667    2.177982
      9          1           0        0.000159   -0.825667   -2.177982
     10          1           0        0.000173    1.669389   -2.083290
     11          8           0       -0.000466   -2.348801   -0.000000
     12          1           0       -0.000372    2.739367    0.000000
 ---------------------------------------------------------------------
 Rotational constants (GHZ):      5.7030830      2.6877591      1.8268147
 Leave Link  202 at Fri Aug 27 21:15:14 2021, MaxMem= 17179869184 cpu:         4.1
 (Enter /public3/home/sc51754/softwares/g09e01/l301.exe)
 Basis read from rwf:  (5D, 7F)
 No pseudopotential information found on rwf file.
 There are   183 symmetry adapted cartesian basis functions of A'  symmetry.
 There are   137 symmetry adapted cartesian basis functions of A"  symmetry.
 There are   158 symmetry adapted basis functions of A'  symmetry.
 There are   122 symmetry adapted basis functions of A"  symmetry.
   280 basis functions,   475 primitive gaussians,   320 cartesian basis functions
    25 alpha electrons       25 beta electrons
       nuclear repulsion energy       273.2148081872 Hartrees.
 IExCor= 2523 DFT=T Ex=TPSS Corr=TPSS ExCW=0 ScaHFX=  0.000000
 ScaDFX=  1.000000  1.000000  1.000000  1.000000 ScalE2=  1.000000  1.000000
 IRadAn=      0 IRanWt=     -1 IRanGd=            0 ICorTp=0 IEmpDi=  4
 NAtoms=   12 NActive=   12 NUniq=    8 SFac= 2.25D+00 NAtFMM=   60 NAOKFM=F Big=F
 Integral buffers will be    131072 words long.
 Raffenetti 2 integral format.
 Two-electron integral symmetry is turned on.
 No density basis found on file   724.
 Leave Link  301 at Fri Aug 27 21:15:14 2021, MaxMem= 17179869184 cpu:         1.3
 (Enter /public3/home/sc51754/softwares/g09e01/l302.exe)
 NPDir=0 NMtPBC=     1 NCelOv=     1 NCel=       1 NClECP=     1 NCelD=      1
         NCelK=      1 NCelE2=     1 NClLst=     1 CellRange=     0.0.
 One-electron integrals computed using PRISM.
 One-electron integral symmetry used in STVInt
 NBasis=   280 RedAO= T EigKep=  1.83D-04  NBF=   158   122
 NBsUse=   280 1.00D-06 EigRej= -1.00D+00 NBFU=   158   122
 Precomputing XC quadrature grid using
 IXCGrd= 4 IRadAn=           0 IRanWt=          -1 IRanGd=           0 AccXCQ= 0.00D+00.
 Generated NRdTot=       0 NPtTot=           0 NUsed=           0 NTot=          32
 NSgBfM=   320   320   320   320   320 MxSgAt=    12 MxSgA2=    12.
 Leave Link  302 at Fri Aug 27 21:15:15 2021, MaxMem= 17179869184 cpu:        37.1
 (Enter /public3/home/sc51754/softwares/g09e01/l303.exe)
 DipDrv:  MaxL=1.
 Leave Link  303 at Fri Aug 27 21:15:15 2021, MaxMem= 17179869184 cpu:         8.4
 (Enter /public3/home/sc51754/softwares/g09e01/l401.exe)
 Initial guess from the checkpoint file:  "4PY_TPSSTPSS_PC2_OPT_FREQ.chk"
 B after Tr=     0.000000   -0.000000    0.000000
         Rot=    1.000000   -0.000000    0.000000   -0.000017 Ang=  -0.00 deg.
 Guess basis will be translated and rotated to current coordinates.
 JPrj=2 DoOrth=T DoCkMO=T.
 Initial guess orbital symmetries:
       Occupied  (A') (A') (A') (A") (A') (A") (A') (A') (A') (A')
                 (A") (A") (A') (A') (A") (A') (A") (A') (A') (A")
                 (A') (A') (A") (A') (A")
       Virtual   (A') (A') (A') (A') (A') (A') (A') (A') (A') (A')
                 (A') (A') (A') (A') (A') (A') (A') (A') (A') (A')
                 (A') (A') (A') (A') (A') (A') (A') (A') (A') (A')
                 (A') (A') (A') (A') (A') (A') (A') (A') (A') (A')
                 (A') (A') (A') (A') (A') (A') (A') (A') (A') (A')
                 (A') (A') (A') (A') (A') (A') (A') (A') (A') (A')
                 (A') (A') (A') (A') (A') (A') (A') (A') (A') (A')
                 (A') (A') (A') (A') (A') (A') (A') (A') (A') (A')
                 (A') (A') (A') (A') (A') (A') (A') (A') (A') (A')
                 (A') (A') (A') (A') (A') (A') (A') (A') (A') (A')
                 (A') (A') (A') (A') (A') (A') (A') (A') (A') (A')
                 (A') (A') (A') (A') (A') (A') (A') (A') (A') (A')
                 (A') (A') (A') (A') (A') (A') (A') (A') (A') (A')
                 (A') (A') (A') (A') (A') (A') (A') (A') (A') (A')
                 (A') (A') (A") (A") (A") (A") (A") (A") (A") (A")
                 (A") (A") (A") (A") (A") (A") (A") (A") (A") (A")
                 (A") (A") (A") (A") (A") (A") (A") (A") (A") (A")
                 (A") (A") (A") (A") (A") (A") (A") (A") (A") (A")
                 (A") (A") (A") (A") (A") (A") (A") (A") (A") (A")
                 (A") (A") (A") (A") (A") (A") (A") (A") (A") (A")
                 (A") (A") (A") (A") (A") (A") (A") (A") (A") (A")
                 (A") (A") (A") (A") (A") (A") (A") (A") (A") (A")
                 (A") (A") (A") (A") (A") (A") (A") (A") (A") (A")
                 (A") (A") (A") (A") (A") (A") (A") (A") (A") (A")
                 (A") (A") (A") (A") (A") (A") (A") (A") (A") (A")
                 (A") (A") (A") (A") (A")
 The electronic state of the initial guess is 1-A'.
 Leave Link  401 at Fri Aug 27 21:15:16 2021, MaxMem= 17179869184 cpu:        39.8
 (Enter /public3/home/sc51754/softwares/g09e01/l502.exe)
 Closed shell SCF:
 Using DIIS extrapolation, IDIIS=  1040.
 Integral symmetry usage will be decided dynamically.
 Keep J ints in memory in symmetry-blocked form, NReq=1161351758.
 IVT=      348938 IEndB=      348938 NGot= 17179869184 MDV= 16792355177
 LenX= 16792355177 LenY= 16792252336
 Requested convergence on RMS density matrix=1.00D-08 within 128 cycles.
 Requested convergence on MAX density matrix=1.00D-06.
 Requested convergence on             energy=1.00D-06.
 No special actions if energy rises.
 FoFCou: FMM=F IPFlag=           0 FMFlag=           0 FMFlg1=           0
         NFxFlg=           0 DoJE=F BraDBF=F KetDBF=F FulRan=T
         wScrn=  0.000000 ICntrl=     600 IOpCl=  0 I1Cent=           0 NGrid=           0
         NMat0=    1 NMatS0=  39340 NMatT0=    0 NMatD0=    1 NMtDS0=    0 NMtDT0=    0
 Petite list used in FoFCou.

 Cycle   1  Pass 1  IDiag  1:
 E= -323.688481394496    
 DIIS: error= 2.61D-04 at cycle   1 NSaved=   1.
 NSaved= 1 IEnMin= 1 EnMin= -323.688481394496     IErMin= 1 ErrMin= 2.61D-04
 ErrMax= 2.61D-04  0.00D+00 EMaxC= 1.00D-01 BMatC= 1.73D-05 BMatP= 1.73D-05
 IDIUse=3 WtCom= 9.97D-01 WtEn= 2.61D-03
 Coeff-Com:  0.100D+01
 Coeff-En:   0.100D+01
 Coeff:      0.100D+01
 Gap=     0.518 Goal=   None    Shift=    0.000
 RMSDP=2.09D-05 MaxDP=8.94D-04              OVMax= 2.10D-03

 Cycle   2  Pass 1  IDiag  1:
 E= -323.688494907029     Delta-E=       -0.000013512533 Rises=F Damp=F
 DIIS: error= 1.84D-04 at cycle   2 NSaved=   2.
 NSaved= 2 IEnMin= 2 EnMin= -323.688494907029     IErMin= 2 ErrMin= 1.84D-04
 ErrMax= 1.84D-04  0.00D+00 EMaxC= 1.00D-01 BMatC= 7.91D-06 BMatP= 1.73D-05
 IDIUse=3 WtCom= 9.98D-01 WtEn= 1.84D-03
 Coeff-Com:  0.364D+00 0.636D+00
 Coeff-En:   0.000D+00 0.100D+01
 Coeff:      0.363D+00 0.637D+00
 Gap=     0.134 Goal=   None    Shift=    0.000
 RMSDP=1.55D-05 MaxDP=8.06D-04 DE=-1.35D-05 OVMax= 1.92D-03

 Cycle   3  Pass 1  IDiag  1:
 E= -323.688490782827     Delta-E=        0.000004124202 Rises=F Damp=F
 DIIS: error= 2.44D-04 at cycle   3 NSaved=   3.
 NSaved= 3 IEnMin= 2 EnMin= -323.688494907029     IErMin= 2 ErrMin= 1.84D-04
 ErrMax= 2.44D-04  0.00D+00 EMaxC= 1.00D-01 BMatC= 1.23D-05 BMatP= 7.91D-06
 IDIUse=3 WtCom= 3.90D-01 WtEn= 6.10D-01
 Coeff-Com:  0.649D-01 0.536D+00 0.399D+00
 Coeff-En:   0.000D+00 0.597D+00 0.403D+00
 Coeff:      0.253D-01 0.573D+00 0.402D+00
 Gap=     0.134 Goal=   None    Shift=    0.000
 RMSDP=1.06D-05 MaxDP=5.40D-04 DE= 4.12D-06 OVMax= 1.28D-03

 Cycle   4  Pass 1  IDiag  1:
 E= -323.688500266425     Delta-E=       -0.000009483599 Rises=F Damp=F
 DIIS: error= 6.05D-05 at cycle   4 NSaved=   4.
 NSaved= 4 IEnMin= 4 EnMin= -323.688500266425     IErMin= 4 ErrMin= 6.05D-05
 ErrMax= 6.05D-05  0.00D+00 EMaxC= 1.00D-01 BMatC= 2.99D-07 BMatP= 7.91D-06
 IDIUse=1 WtCom= 1.00D+00 WtEn= 0.00D+00
 Coeff-Com:  0.205D-01 0.268D+00 0.214D+00 0.498D+00
 Coeff:      0.205D-01 0.268D+00 0.214D+00 0.498D+00
 Gap=     0.134 Goal=   None    Shift=    0.000
 RMSDP=3.63D-06 MaxDP=1.36D-04 DE=-9.48D-06 OVMax= 7.57D-04

 Cycle   5  Pass 1  IDiag  1:
 E= -323.688500282953     Delta-E=       -0.000000016528 Rises=F Damp=F
 DIIS: error= 4.23D-05 at cycle   5 NSaved=   5.
 NSaved= 5 IEnMin= 5 EnMin= -323.688500282953     IErMin= 5 ErrMin= 4.23D-05
 ErrMax= 4.23D-05  0.00D+00 EMaxC= 1.00D-01 BMatC= 3.31D-07 BMatP= 2.99D-07
 IDIUse=1 WtCom= 1.00D+00 WtEn= 0.00D+00
 Coeff-Com:  0.855D-03 0.133D+00 0.114D+00 0.429D+00 0.324D+00
 Coeff:      0.855D-03 0.133D+00 0.114D+00 0.429D+00 0.324D+00
 Gap=     0.134 Goal=   None    Shift=    0.000
 RMSDP=1.79D-06 MaxDP=6.84D-05 DE=-1.65D-08 OVMax= 3.46D-04

 Cycle   6  Pass 1  IDiag  1:
 E= -323.688500638965     Delta-E=       -0.000000356012 Rises=F Damp=F
 DIIS: error= 3.59D-06 at cycle   6 NSaved=   6.
 NSaved= 6 IEnMin= 6 EnMin= -323.688500638965     IErMin= 6 ErrMin= 3.59D-06
 ErrMax= 3.59D-06  0.00D+00 EMaxC= 1.00D-01 BMatC= 3.78D-09 BMatP= 2.99D-07
 IDIUse=1 WtCom= 1.00D+00 WtEn= 0.00D+00
 Coeff-Com: -0.724D-03 0.533D-01 0.473D-01 0.204D+00 0.174D+00 0.522D+00
 Coeff:     -0.724D-03 0.533D-01 0.473D-01 0.204D+00 0.174D+00 0.522D+00
 Gap=     0.134 Goal=   None    Shift=    0.000
 RMSDP=2.34D-07 MaxDP=1.14D-05 DE=-3.56D-07 OVMax= 3.36D-05

 Cycle   7  Pass 1  IDiag  1:
 E= -323.688500642452     Delta-E=       -0.000000003487 Rises=F Damp=F
 DIIS: error= 1.16D-06 at cycle   7 NSaved=   7.
 NSaved= 7 IEnMin= 7 EnMin= -323.688500642452     IErMin= 7 ErrMin= 1.16D-06
 ErrMax= 1.16D-06  0.00D+00 EMaxC= 1.00D-01 BMatC= 3.46D-10 BMatP= 3.78D-09
 IDIUse=1 WtCom= 1.00D+00 WtEn= 0.00D+00
 Coeff-Com: -0.235D-03 0.978D-02 0.938D-02 0.494D-01 0.428D-01 0.274D+00
 Coeff-Com:  0.615D+00
 Coeff:     -0.235D-03 0.978D-02 0.938D-02 0.494D-01 0.428D-01 0.274D+00
 Coeff:      0.615D+00
 Gap=     0.134 Goal=   None    Shift=    0.000
 RMSDP=5.67D-08 MaxDP=2.29D-06 DE=-3.49D-09 OVMax= 9.96D-06

 Cycle   8  Pass 1  IDiag  1:
 E= -323.688500642780     Delta-E=       -0.000000000328 Rises=F Damp=F
 DIIS: error= 2.25D-07 at cycle   8 NSaved=   8.
 NSaved= 8 IEnMin= 8 EnMin= -323.688500642780     IErMin= 8 ErrMin= 2.25D-07
 ErrMax= 2.25D-07  0.00D+00 EMaxC= 1.00D-01 BMatC= 1.70D-11 BMatP= 3.46D-10
 IDIUse=1 WtCom= 1.00D+00 WtEn= 0.00D+00
 Coeff-Com: -0.113D-03 0.294D-02 0.292D-02 0.175D-01 0.146D-01 0.120D+00
 Coeff-Com:  0.313D+00 0.530D+00
 Coeff:     -0.113D-03 0.294D-02 0.292D-02 0.175D-01 0.146D-01 0.120D+00
 Coeff:      0.313D+00 0.530D+00
 Gap=     0.134 Goal=   None    Shift=    0.000
 RMSDP=1.31D-08 MaxDP=7.66D-07 DE=-3.28D-10 OVMax= 1.47D-06

 Cycle   9  Pass 1  IDiag  1:
 E= -323.688500642798     Delta-E=       -0.000000000018 Rises=F Damp=F
 DIIS: error= 1.24D-07 at cycle   9 NSaved=   9.
 NSaved= 9 IEnMin= 9 EnMin= -323.688500642798     IErMin= 9 ErrMin= 1.24D-07
 ErrMax= 1.24D-07  0.00D+00 EMaxC= 1.00D-01 BMatC= 2.20D-12 BMatP= 1.70D-11
 IDIUse=1 WtCom= 1.00D+00 WtEn= 0.00D+00
 Coeff-Com: -0.361D-04 0.495D-03 0.484D-03 0.395D-02 0.285D-02 0.345D-01
 Coeff-Com:  0.102D+00 0.294D+00 0.562D+00
 Coeff:     -0.361D-04 0.495D-03 0.484D-03 0.395D-02 0.285D-02 0.345D-01
 Coeff:      0.102D+00 0.294D+00 0.562D+00
 Gap=     0.134 Goal=   None    Shift=    0.000
 RMSDP=4.50D-09 MaxDP=1.78D-07 DE=-1.81D-11 OVMax= 4.44D-07

[...]
 Iteration  1 RMS(Cart)=  0.00003659 RMS(Int)=  0.00000000
 Iteration  2 RMS(Cart)=  0.00000000 RMS(Int)=  0.00000000
 ITry= 1 IFail=0 DXMaxC= 1.85D-04 DCOld= 1.00D+10 DXMaxT= 3.00D-01 DXLimC= 3.00D+00 Rises=F
 ClnCor:  largest displacement from symmetrization is 2.17D-09 for atom    10.
 Variable       Old X    -DE/DX   Delta X   Delta X   Delta X     New X
                                 (Linear)    (Quad)   (Total)
    R1        2.56450  -0.00001   0.00000  -0.00002  -0.00002   2.56449
    R2        2.59677  -0.00000   0.00000  -0.00001  -0.00001   2.59676
    R3        2.04863   0.00000   0.00000   0.00001   0.00001   2.04864
    R4        2.76836   0.00001   0.00000   0.00003   0.00003   2.76839
    R5        2.04805  -0.00000   0.00000  -0.00001  -0.00001   2.04804
    R6        2.76836   0.00001   0.00000   0.00003   0.00003   2.76839
    R7        2.34288  -0.00001   0.00000  -0.00002  -0.00002   2.34286
    R8        2.56450  -0.00001   0.00000  -0.00002  -0.00002   2.56449
    R9        2.04805  -0.00000   0.00000  -0.00001  -0.00001   2.04804
   R10        2.59677  -0.00000   0.00000  -0.00001  -0.00001   2.59676
   R11        2.04863   0.00000   0.00000   0.00001   0.00001   2.04864
   R12        1.90696  -0.00000   0.00000  -0.00001  -0.00001   1.90695
    A1        2.11248   0.00000   0.00000   0.00001   0.00001   2.11249
    A2        2.15572  -0.00001   0.00000  -0.00004  -0.00004   2.15569
    A3        2.01498   0.00000   0.00000   0.00003   0.00003   2.01501
    A4        2.12648  -0.00001   0.00000  -0.00003  -0.00003   2.12645
    A5        2.09282   0.00001   0.00000   0.00006   0.00006   2.09288
    A6        2.06389  -0.00000   0.00000  -0.00004  -0.00004   2.06386
    A7        1.98295   0.00000   0.00000   0.00002   0.00002   1.98297
    A8        2.15012  -0.00000   0.00000  -0.00001  -0.00001   2.15011
    A9        2.15012  -0.00000   0.00000  -0.00001  -0.00001   2.15011
   A10        2.12648  -0.00001   0.00000  -0.00003  -0.00003   2.12645
   A11        2.06389  -0.00000   0.00000  -0.00004  -0.00004   2.06386
   A12        2.09282   0.00001   0.00000   0.00006   0.00006   2.09288
   A13        2.11248   0.00000   0.00000   0.00001   0.00001   2.11249
   A14        2.15572  -0.00001   0.00000  -0.00004  -0.00004   2.15569
   A15        2.01498   0.00000   0.00000   0.00003   0.00003   2.01501
   A16        2.10551   0.00000   0.00000   0.00002   0.00002   2.10552
   A17        2.08884  -0.00000   0.00000  -0.00001  -0.00001   2.08883
   A18        2.08884  -0.00000   0.00000  -0.00001  -0.00001   2.08883
    D1       -0.00004   0.00000   0.00000   0.00004   0.00004   0.00000
    D2        3.14156   0.00000   0.00000   0.00003   0.00003   3.14159
    D3        3.14159   0.00000   0.00000   0.00001   0.00001  -3.14159
    D4        0.00000   0.00000   0.00000  -0.00000  -0.00000  -0.00000
    D5        0.00007  -0.00000   0.00000  -0.00007  -0.00007  -0.00000
    D6        3.14140   0.00000   0.00000   0.00019   0.00019  -3.14159
    D7       -3.14155  -0.00000   0.00000  -0.00004  -0.00004   3.14159
    D8       -0.00022   0.00000   0.00000   0.00022   0.00022   0.00000
    D9        0.00001  -0.00000   0.00000  -0.00001  -0.00001  -0.00000
   D10       -3.14159   0.00000   0.00000  -0.00000  -0.00000   3.14159
   D11        3.14159  -0.00000   0.00000   0.00000   0.00000  -3.14159
   D12       -0.00000   0.00000   0.00000   0.00000   0.00000   0.00000
   D13       -0.00001   0.00000   0.00000   0.00001   0.00001   0.00000
   D14       -3.14159   0.00000   0.00000  -0.00000  -0.00000   3.14159
   D15        3.14159  -0.00000   0.00000   0.00000   0.00000  -3.14159
   D16        0.00000  -0.00000   0.00000  -0.00000  -0.00000   0.00000
   D17        0.00004  -0.00000   0.00000  -0.00004  -0.00004  -0.00000
   D18       -3.14159  -0.00000   0.00000  -0.00001  -0.00001   3.14159
   D19       -3.14156  -0.00000   0.00000  -0.00003  -0.00003  -3.14159
   D20       -0.00000  -0.00000   0.00000   0.00000   0.00000   0.00000
   D21       -0.00007   0.00000   0.00000   0.00007   0.00007   0.00000
   D22       -3.14140  -0.00000   0.00000  -0.00019  -0.00019   3.14159
   D23        3.14155   0.00000   0.00000   0.00004   0.00004  -3.14159
   D24        0.00022  -0.00000   0.00000  -0.00022  -0.00022  -0.00000
         Item               Value     Threshold  Converged?
 Maximum Force            0.000012     0.000450     YES
 RMS     Force            0.000004     0.000300     YES
 Maximum Displacement     0.000185     0.001800     YES
 RMS     Displacement     0.000037     0.001200     YES
 Predicted change in Energy=-2.173237D-09
 Optimization completed.
    -- Stationary point found.
                           ----------------------------
                           !   Optimized Parameters   !
                           ! (Angstroms and Degrees)  !
 --------------------------                            --------------------------
 ! Name  Definition              Value          Derivative Info.                !
 --------------------------------------------------------------------------------
 ! R1    R(1,2)                  1.3571         -DE/DX =    0.0                 !
 ! R2    R(1,6)                  1.3742         -DE/DX =    0.0                 !
 ! R3    R(1,7)                  1.0841         -DE/DX =    0.0                 !
 ! R4    R(2,3)                  1.465          -DE/DX =    0.0                 !
 ! R5    R(2,8)                  1.0838         -DE/DX =    0.0                 !
 ! R6    R(3,4)                  1.465          -DE/DX =    0.0                 !
 ! R7    R(3,11)                 1.2398         -DE/DX =    0.0                 !
 ! R8    R(4,5)                  1.3571         -DE/DX =    0.0                 !
 ! R9    R(4,9)                  1.0838         -DE/DX =    0.0                 !
 ! R10   R(5,6)                  1.3742         -DE/DX =    0.0                 !
 ! R11   R(5,10)                 1.0841         -DE/DX =    0.0                 !
 ! R12   R(6,12)                 1.0091         -DE/DX =    0.0                 !
 ! A1    A(2,1,6)              121.0361         -DE/DX =    0.0                 !
 ! A2    A(2,1,7)              123.5138         -DE/DX =    0.0                 !
 ! A3    A(6,1,7)              115.4501         -DE/DX =    0.0                 !
 ! A4    A(1,2,3)              121.8382         -DE/DX =    0.0                 !
 ! A5    A(1,2,8)              119.9095         -DE/DX =    0.0                 !
 ! A6    A(3,2,8)              118.2523         -DE/DX =    0.0                 !
 ! A7    A(2,3,4)              113.6148         -DE/DX =    0.0                 !
 ! A8    A(2,3,11)             123.1926         -DE/DX =    0.0                 !
 ! A9    A(4,3,11)             123.1926         -DE/DX =    0.0                 !
 ! A10   A(3,4,5)              121.8382         -DE/DX =    0.0                 !
 ! A11   A(3,4,9)              118.2523         -DE/DX =    0.0                 !
 ! A12   A(5,4,9)              119.9095         -DE/DX =    0.0                 !
 ! A13   A(4,5,6)              121.0361         -DE/DX =    0.0                 !
 ! A14   A(4,5,10)             123.5138         -DE/DX =    0.0                 !
 ! A15   A(6,5,10)             115.4501         -DE/DX =    0.0                 !
 ! A16   A(1,6,5)              120.6366         -DE/DX =    0.0                 !
 ! A17   A(1,6,12)             119.6817         -DE/DX =    0.0                 !
 ! A18   A(5,6,12)             119.6817         -DE/DX =    0.0                 !
 ! D1    D(6,1,2,3)             -0.0021         -DE/DX =    0.0                 !
 ! D2    D(6,1,2,8)            179.9983         -DE/DX =    0.0                 !
 ! D3    D(7,1,2,3)           -180.0004         -DE/DX =    0.0                 !
 ! D4    D(7,1,2,8)              0.0            -DE/DX =    0.0                 !
 ! D5    D(2,1,6,5)              0.0038         -DE/DX =    0.0                 !
 ! D6    D(2,1,6,12)          -180.011          -DE/DX =    0.0                 !
 ! D7    D(7,1,6,5)            180.0023         -DE/DX =    0.0                 !
 ! D8    D(7,1,6,12)            -0.0125         -DE/DX =    0.0                 !
 ! D9    D(1,2,3,4)              0.0003         -DE/DX =    0.0                 !
 ! D10   D(1,2,3,11)           180.0002         -DE/DX =    0.0                 !
 ! D11   D(8,2,3,4)           -180.0001         -DE/DX =    0.0                 !
 ! D12   D(8,2,3,11)            -0.0002         -DE/DX =    0.0                 !
 ! D13   D(2,3,4,5)             -0.0003         -DE/DX =    0.0                 !
 ! D14   D(2,3,4,9)            180.0001         -DE/DX =    0.0                 !
 ! D15   D(11,3,4,5)          -180.0002         -DE/DX =    0.0                 !
 ! D16   D(11,3,4,9)             0.0002         -DE/DX =    0.0                 !
 ! D17   D(3,4,5,6)              0.0021         -DE/DX =    0.0                 !
 ! D18   D(3,4,5,10)           180.0004         -DE/DX =    0.0                 !
 ! D19   D(9,4,5,6)           -179.9983         -DE/DX =    0.0                 !
 ! D20   D(9,4,5,10)             0.0            -DE/DX =    0.0                 !
 ! D21   D(4,5,6,1)             -0.0038         -DE/DX =    0.0                 !
 ! D22   D(4,5,6,12)           180.011          -DE/DX =    0.0                 !
 ! D23   D(10,5,6,1)          -180.0023         -DE/DX =    0.0                 !
 ! D24   D(10,5,6,12)            0.0125         -DE/DX =    0.0                 !
 --------------------------------------------------------------------------------
 GradGradGradGradGradGradGradGradGradGradGradGradGradGradGradGradGradGrad

 Leave Link  103 at Fri Aug 27 21:16:41 2021, MaxMem= 17179869184 cpu:        84.1
 (Enter /public3/home/sc51754/softwares/g09e01/l9999.exe)
 1\1\GINC-T1507\Freq\RTPSSTPSS\Gen\C5H5N1O1\SC51754\27-Aug-2021\0\\#P G
 eom=AllCheck Guess=TCheck SCRF=Check GenChk RTPSSTPSS/ChkBas Freq\\4PY
 _TPSSTPSS_PC2_OPT_FREQ\\0,1\C,-0.0001777329,-1.0486343813,1.193848334\
 C,-0.0001270035,0.30806346,1.225925354\C,-0.000093602,1.1100602819,0.\
 C,-0.0001270035,0.30806346,-1.225925354\C,-0.0001777329,-1.0486343813,
 -1.193848334\N,-0.0002423311,-1.7290876407,0.\H,-0.0001976375,-1.66839
 78454,2.0833086317\H,-0.0001037594,0.8261149072,2.1778722388\H,-0.0001
 037594,0.8261149072,-2.1778722388\H,-0.0001976375,-1.6683978454,-2.083
 3086317\O,-0.0000443002,2.3498612752,0.\H,-0.0001115002,-2.7382061972,
 0.\\Version=EM64L-G09RevE.01\State=1-A'\HF=-323.6885084\RMSD=2.391e-09
 \RMSF=7.407e-06\ZeroPoint=0.0916379\Thermal=0.0971728\Dipole=-0.000018
 4,-2.7222531,0.\DipoleDeriv=-0.0739312,0.0001094,-0.0000009,0.0000549,
 0.6389883,0.2196485,0.0000292,0.3554917,0.3840376,-0.1712575,0.0000038
 ,0.0000012,-0.0000194,-0.4833328,0.0637479,0.0000219,0.4533087,-0.1052
 344,0.1947234,0.000059,0.,0.0000607,1.6865907,0.,0.,0.,0.4914899,-0.17
 12575,0.0000038,-0.0000012,-0.0000194,-0.4833328,-0.0637479,-0.0000219
 ,-0.4533087,-0.1052344,-0.0739312,0.0001094,0.0000009,0.0000549,0.6389
 883,-0.2196485,-0.0000292,-0.3554917,0.3840376,-0.1638654,-0.000299,0.
 ,-0.0000795,-0.8132862,0.,0.,0.,-0.6251102,0.1455938,-0.0000215,0.0000
 016,-0.0000034,-0.0011421,0.0784307,0.0000016,0.0668839,-0.0185603,0.1
 375305,-0.0000099,0.0000042,-0.0000044,0.0457169,-0.0431274,-0.0000018
 ,-0.0295743,-0.0378466,0.1375305,-0.0000099,-0.0000042,-0.0000044,0.04
 57169,0.0431274,0.0000018,0.0295743,-0.0378466,0.1455938,-0.0000215,-0
 .0000016,-0.0000034,-0.0011421,-0.0784307,-0.0000016,-0.0668839,-0.018
 5603,-0.397749,-0.0000444,0.,-0.0000471,-1.5199115,0.,0.,0.,-0.4380692
 ,0.29102,0.0001207,0.,0.0000104,0.2461463,0.,0.,0.,0.1268971\Polar=38.
 2720795,0.0020891,93.6117947,0.,0.,72.7111572\PG=CS [SG(C1H1N1O1),X(C4
 H4)]\NImag=0\\0.12287540,0.00002131,0.78280835,0.00000367,-0.05696645,
 0.66012988,-0.04882134,-0.00001360,-0.00000018,0.10206572,-0.00001304,
 -0.42703072,0.01412423,0.00002604,0.74429406,-0.00000232,-0.01536283,-
 0.12529359,0.00000462,0.08072388,0.61711940,-0.00107009,-0.00000153,0.
 00000014,-0.06901062,-0.00000136,0.00000142,0.18313825,-0.00000134,-0.
 02929016,0.02678891,-0.00000149,-0.10664258,0.03532706,0.00002520,0.81
 442332,0.00000240,0.03834712,0.03873465,0.00000097,0.02048326,-0.19897
 846,0.,0.,0.50063822,-0.00087415,-0.00000027,-0.00000018,0.00677273,0.
 00000071,0.00000018,-0.06901062,-0.00000149,-0.00000097,0.10206572,-0.
 00000005,-0.01112566,-0.01974869,0.00000071,0.02907718,0.00715492,-0.0
 0000136,-0.10664258,-0.02048326,0.00002604,0.74429406,0.00000047,0.002
 28700,-0.00230453,-0.00000018,-0.00715492,-0.03037337,-0.00000142,-0.0
 3532706,-0.19897846,-0.00000462,-0.08072388,0.61711940,0.00503957,0.00
 000009,-0.00000177,-0.00087415,-0.00000005,-0.00000047,-0.00107009,-0.
 00000134,-0.00000240,-0.04882134,-0.00001304,0.00000232,0.12287540,0.0
 0000009,0.02222792,0.00767875,-0.00000027,-0.01112566,-0.00228700,-0.0
 0000153,-0.02929016,-0.03834712,-0.00001360,-0.42703072,0.01536283,0.0
 0002131,0.78280835,0.00000177,-0.00767875,-0.06760732,0.00000018,0.019
 74869,-0.00230453,-0.00000014,-0.02678891,0.03873465,0.00000018,-0.014
 12423,-0.12529359,-0.00000367,0.05696645,0.66012988,-0.04219987,0.0000
 0409,-0.00000446,0.00877315,-0.00000503,0.00000122,-0.00895457,0.00000
 174,0.,0.00877315,-0.00000503,-0.00000122,-0.04219987,0.00000409,0.000
 00446,0.06019376,-0.00000446,-0.17023471,-0.08814851,-0.00000368,-0.03
 876484,-0.03995728,0.00000034,0.00908349,0.,-0.00000368,-0.03876484,0.
 03995728,-0.00000446,-0.17023471,0.08814851,-0.00004791,0.84551014,-0.
 00001346,-0.05690168,-0.25868032,-0.00000148,-0.04801808,0.00516889,0.
 ,0.,-0.04800646,0.00000148,0.04801808,0.00516889,0.00001346,0.05690168
 ,-0.25868032,0.,0.,0.65916607,-0.03443937,-0.00000357,0.00000542,0.006
 51488,-0.00000099,0.00000097,0.01099171,-0.00000056,-0.00000062,-0.001
 00066,0.00000033,0.00000004,0.00343328,-0.00000069,0.00000063,0.000230
 48,0.00000104,-0.00000317,0.02308434,-0.00000368,-0.15192593,0.1353290
 2,-0.00000079,-0.01146348,0.02748582,-0.00000027,-0.00243495,-0.005903
 40,0.,0.00064339,0.00026417,-0.00000041,-0.00263547,-0.00183719,0.0000
 0015,0.01276924,-0.02055045,0.00000465,0.15455084,0.00000332,0.1262186
 6,-0.23857195,-0.00000008,-0.00153184,0.00600471,-0.00000017,-0.001695
 50,0.00066122,0.,0.00034706,0.00089687,-0.00000036,-0.00623079,-0.0012
 0380,0.00000044,0.01749888,-0.02701434,-0.00000341,-0.13623611,0.25904
 659,-0.00148670,-0.00000071,-0.00000098,-0.03079308,-0.00000365,-0.000
 00546,0.00451788,0.00000024,0.00000076,0.00365381,-0.00000030,-0.00000
 007,-0.00017427,0.00000025,-0.00000032,0.00876228,-0.00000051,0.000000
 95,-0.00517155,0.00000023,0.00000009,0.02323134,-0.00000059,-0.0099607
 7,-0.02876893,-0.00000402,-0.11696984,-0.11544984,0.00000035,0.0121195
 5,0.01497528,-0.00000027,-0.00201656,0.00309941,-0.00000002,-0.0006598
 4,0.00092820,0.00000005,-0.00577815,0.00136759,0.00000019,0.00094351,0
 .00021422,0.00000442,0.12107003,0.00000019,0.00292476,0.00288771,-0.00
 000538,-0.11862651,-0.27296424,-0.00000082,-0.01813387,-0.01788684,0.0
 0000012,0.00391301,-0.00389431,0.00000009,0.00156491,-0.00057651,0.000
 00007,0.00151283,0.00325665,0.,-0.00061737,0.00074115,0.00000573,0.127
 05882,0.28509514,-0.00017427,0.00000025,0.00000032,0.00365381,-0.00000
 030,0.00000007,0.00451788,0.00000024,-0.00000076,-0.03079308,-0.000003
 65,0.00000546,-0.00148670,-0.00000071,0.00000098,0.00876228,-0.0000005
 1,-0.00000095,-0.00074473,0.00000006,0.00000002,-0.00106760,0.00000006
 ,0.00000002,0.02323134,-0.00000002,-0.00065984,-0.00092820,-0.00000027
 ,-0.00201656,-0.00309941,0.00000035,0.01211955,-0.01497528,-0.00000402
 ,-0.11696984,0.11544984,-0.00000059,-0.00996077,0.02876893,0.00000005,
 -0.00577815,-0.00136759,0.00000006,0.00009943,0.00011211,0.00000006,0.
 00060898,-0.00091485,0.00000442,0.12107003,-0.00000009,-0.00156491,-0.
 00057651,-0.00000012,-0.00391301,-0.00389431,0.00000082,0.01813387,-0.
 01788684,0.00000538,0.11862651,-0.27296424,-0.00000019,-0.00292476,0.0
 0288771,-0.00000007,-0.00151283,0.00325665,0.,0.00011612,0.00002745,-0
 .00000002,0.00091485,-0.00115314,-0.00000573,-0.12705882,0.28509514,0.
 00343328,-0.00000069,-0.00000063,-0.00100066,0.00000033,-0.00000004,0.
 01099171,-0.00000056,0.00000062,0.00651488,-0.00000099,-0.00000097,-0.
 03443937,-0.00000357,-0.00000542,0.00023048,0.00000104,0.00000317,0.00
 116971,-0.00000002,0.00000004,-0.00074473,0.00000006,0.,-0.00517155,0.
 00000019,0.,0.02308434,-0.00000041,-0.00263547,0.00183719,0.,0.0006433
 9,-0.00026417,-0.00000027,-0.00243495,0.00590340,-0.00000079,-0.011463
 48,-0.02748582,-0.00000368,-0.15192593,-0.13532902,0.00000015,0.012769
 24,0.02055045,-0.00000002,0.00059043,0.00076705,0.00000006,0.00009943,
 -0.00011612,0.00000023,0.00094351,0.00061737,0.00000465,0.15455084,0.0
 0000036,0.00623079,-0.00120380,0.,-0.00034706,0.00089687,0.00000017,0.
 00169550,0.00066122,0.00000008,0.00153184,0.00600471,-0.00000332,-0.12
 621866,-0.23857195,-0.00000044,-0.01749888,-0.02701434,-0.00000004,-0.
 00076705,-0.00119220,-0.00000002,-0.00011211,0.00002745,-0.00000009,-0
 .00021422,0.00074115,0.00000341,0.13623611,0.25904659,0.00413142,0.000
 00047,0.00000056,0.01966774,-0.00000355,0.00000117,-0.06431933,-0.0000
 2032,0.,0.01966774,-0.00000355,-0.00000117,0.00413142,0.00000047,-0.00
 000056,0.00001419,-0.00000012,0.,-0.00232544,-0.00000008,0.00000002,-0
 .00265347,0.00000019,0.00000005,-0.00265347,0.00000019,-0.00000005,-0.
 00232544,-0.00000008,-0.00000002,0.02703386,0.00000079,0.00984022,0.00
 693204,-0.00000317,-0.06251569,0.02928952,-0.00002032,-0.57058598,0.,-
 0.00000317,-0.06251569,-0.02928952,0.00000079,0.00984022,-0.00693204,-
 0.00000236,-0.00779464,0.,0.00000001,-0.00238234,0.00030998,0.00000008
 ,0.00102571,0.00100992,0.00000008,0.00102571,-0.00100992,0.00000001,-0
 .00238234,-0.00030998,0.00002647,0.68530482,-0.00000042,-0.00407846,-0
 .01377716,0.00000184,0.04574024,0.01096196,0.,0.,-0.09595173,-0.000001
 84,-0.04574024,0.01096196,0.00000042,0.00407846,-0.01377716,0.,0.,0.01
 239368,0.00000018,0.00219060,0.00016133,-0.00000013,-0.00274036,0.0041
 7207,0.00000013,0.00274036,0.00417207,-0.00000018,-0.00219060,0.000161
 33,0.,0.,0.07981585,-0.00641387,-0.00000585,-0.00000192,0.00305182,0.0
 0000090,-0.00000137,-0.00072211,-0.00000032,0.,0.00305182,0.00000090,0
 .00000137,-0.00641387,-0.00000585,0.00000192,-0.00238545,0.00006291,0.
 ,-0.00174267,0.00000017,0.00000008,0.00192609,-0.00000041,-0.00000005,
 0.00192609,-0.00000041,0.00000005,-0.00174267,0.00000017,-0.00000008,-
 0.00036923,0.00000078,0.,0.00983408,0.00000139,-0.01201323,0.00187064,
 0.00000056,0.00251474,-0.00356066,0.00000041,-0.00042456,0.,0.00000056
 ,0.00251474,0.00356066,0.00000139,-0.01201323,-0.00187064,0.00005001,-
 0.44278207,0.,-0.00000047,0.00124535,0.00022627,-0.00000017,-0.0004820
 5,0.00042448,-0.00000017,-0.00048205,-0.00042448,-0.00000047,0.0012453
 5,-0.00022627,-0.00000008,0.00114002,0.,-0.00005298,0.45953700,0.00000
 409,-0.03345524,0.00626296,-0.00000019,-0.00122887,-0.00634333,0.,0.,-
 0.00174116,0.00000019,0.00122887,-0.00634333,-0.00000409,0.03345524,0.
 00626296,0.,0.,-0.06901505,0.,0.00052584,0.00044296,-0.00000053,-0.001
 48714,0.00029486,0.00000053,0.00148714,0.00029486,0.,-0.00052584,0.000
 44296,0.,0.,0.00070581,0.,0.,0.06873551\\0.00000139,-0.00000155,0.0000
 1471,-0.00000028,0.00001099,-0.00001953,0.00000110,-0.00001356,0.,-0.0
 0000028,0.00001099,0.00001953,0.00000139,-0.00000155,-0.00001471,-0.00
 000496,-0.00000456,0.,-0.00000029,-0.00000172,-0.00000516,-0.00000005,
 -0.00000241,0.00000513,-0.00000005,-0.00000241,-0.00000513,-0.00000029
 ,-0.00000172,0.00000516,-0.00000025,0.00001212,0.,0.00000258,-0.000004
 62,0.\\\@


 QUANTUM MECHANICS IS BOHRING -- M.S. GORDON
 Job cpu time:       0 days  0 hours 38 minutes 57.3 seconds.
 File lengths (MBytes):  RWF=     65 Int=      0 D2E=      0 Chk=      7 Scr=      1
 Normal termination of Gaussian 09 at Fri Aug 27 21:16:42 2021.
