 Entering Gaussian System, Link 0=g09
 Initial command:
 /gpfs/share/home/1801110325/software/g09e01/l1.exe "./Gau-16521.inp" -scrdir="./"
 Entering Link 1 = /gpfs/share/home/1801110325/software/g09e01/l1.exe PID=     16523.
  
 Copyright (c) 1988,1990,1992,1993,1995,1998,2003,2009,2015,
            Gaussian, Inc.  All Rights Reserved.
  
 This is part of the Gaussian(R) 09 program.  It is based on
 the Gaussian(R) 03 system (copyright 2003, Gaussian, Inc.),
 the Gaussian(R) 98 system (copyright 1998, Gaussian, Inc.),
 the Gaussian(R) 94 system (copyright 1995, Gaussian, Inc.),
 the Gaussian 92(TM) system (copyright 1992, Gaussian, Inc.),
 the Gaussian 90(TM) system (copyright 1990, Gaussian, Inc.),
 the Gaussian 88(TM) system (copyright 1988, Gaussian, Inc.),
 the Gaussian 86(TM) system (copyright 1986, Carnegie Mellon
 University), and the Gaussian 82(TM) system (copyright 1983,
 Carnegie Mellon University). Gaussian is a federally registered
 trademark of Gaussian, Inc.
  
 This software contains proprietary and confidential information,
 including trade secrets, belonging to Gaussian, Inc.
  
 This software is provided under written license and may be
 used, copied, transmitted, or stored only in accord with that
 written license.
  
 The following legend is applicable only to US Government
 contracts under FAR:
  
                    RESTRICTED RIGHTS LEGEND
  
 Use, reproduction and disclosure by the US Government is
 subject to restrictions as set forth in subparagraphs (a)
 and (c) of the Commercial Computer Software - Restricted
 Rights clause in FAR 52.227-19.
  
 Gaussian, Inc.
 340 Quinnipiac St., Bldg. 40, Wallingford CT 06492
  
  
 ---------------------------------------------------------------
 Warning -- This program may not be used in any manner that
 competes with the business of Gaussian, Inc. or will provide
 assistance to any competitor of Gaussian, Inc.  The licensee
 of this program is prohibited from giving any competitor of
 Gaussian, Inc. access to this program.  By using this program,
 the user acknowledges that Gaussian, Inc. is engaged in the
 business of creating and licensing software in the field of
 computational chemistry and represents and warrants to the
 licensee that it is not a competitor of Gaussian, Inc. and that
 it will not use this program in any manner prohibited above.
 ---------------------------------------------------------------
  

 Cite this work as:
 Gaussian 09, Revision E.01,
 M. J. Frisch, G. W. Trucks, H. B. Schlegel, G. E. Scuseria, 
 M. A. Robb, J. R. Cheeseman, G. Scalmani, V. Barone, B. Mennucci, 
 G. A. Petersson, H. Nakatsuji, M. Caricato, X. Li, H. P. Hratchian, 
 A. F. Izmaylov, J. Bloino, G. Zheng, J. L. Sonnenberg, M. Hada, 
 M. Ehara, K. Toyota, R. Fukuda, J. Hasegawa, M. Ishida, T. Nakajima, 
 Y. Honda, O. Kitao, H. Nakai, T. Vreven, J. A. Montgomery, Jr., 
 J. E. Peralta, F. Ogliaro, M. Bearpark, J. J. Heyd, E. Brothers, 
 K. N. Kudin, V. N. Staroverov, T. Keith, R. Kobayashi, J. Normand, 
 K. Raghavachari, A. Rendell, J. C. Burant, S. S. Iyengar, J. Tomasi, 
 M. Cossi, N. Rega, J. M. Millam, M. Klene, J. E. Knox, J. B. Cross, 
 V. Bakken, C. Adamo, J. Jaramillo, R. Gomperts, R. E. Stratmann, 
 O. Yazyev, A. J. Austin, R. Cammi, C. Pomelli, J. W. Ochterski, 
 R. L. Martin, K. Morokuma, V. G. Zakrzewski, G. A. Voth, 
 P. Salvador, J. J. Dannenberg, S. Dapprich, A. D. Daniels, 
 O. Farkas, J. B. Foresman, J. V. Ortiz, J. Cioslowski, 
 and D. J. Fox, Gaussian, Inc., Wallingford CT, 2013.
 
 ******************************************
 Gaussian 09:  EM64L-G09RevE.01 30-Nov-2015
                 3-Sep-2021 
 ******************************************
 %nprocshared=6
 Will use up to    6 processors via shared memory.
 %mem=18GB
 %oldchk=HY_TPSSh_PC2_OPT_FREQ.chk
 %chk=HY_G3.chk
 Copying data from "HY_TPSSh_PC2_OPT_FREQ.chk" to current chk file "HY_G3.chk".
 ---------------------
 #p G3 geom=checkpoint
 ---------------------
 1/18=20,19=15,29=2,38=1/1,3;
 2/9=110,12=2,40=1/2;
 3/5=33,7=1,11=9,14=-4,16=1,25=1,30=1,71=1/1,2,3;
 4//1;
 5/5=2,38=5/2;
 6/7=2,8=2,9=2,10=2,28=1/1;
 7//1,2,3,16;
 1/18=20,19=15/3(2);
 2/9=110/2;
 99//99;
 2/9=110/2;
 3/5=33,7=1,11=9,14=-2,16=1,25=1,30=1,71=1/1,2,3;
 4/5=5,16=3,69=1/1;
 5/5=2,38=5/2;
 7//1,2,3,16;
 1/18=20,19=15/3(-5);
 2/9=110/2;
 6/7=2,8=2,9=2,10=2,19=2,28=1/1;
 99/9=1/99;
 Leave Link    1 at Fri Sep  3 00:21:33 2021, MaxMem=  2415919104 cpu:         3.0
 (Enter /gpfs/share/home/1801110325/software/g09e01/l101.exe)
 -----
 HY_G3
 -----
 Structure from the checkpoint file:  "HY_G3.chk"
 Charge =  0 Multiplicity = 1
 Redundant internal coordinates found in file.
 O,0,0.0050582573,2.2557666567,0.
 N,0,-1.178119033,0.3000545726,0.
 C,0,0.0032151446,0.901795404,0.
 C,0,1.2274861595,0.2273262928,0.
 C,0,-1.1904057903,-1.0393274121,0.
 C,0,1.1901579166,-1.1550730382,0.
 C,0,-0.0410835857,-1.8125205382,0.
 H,0,-0.9264697479,2.5229148635,0.
 H,0,2.1546862383,0.7829438462,0.
 H,0,-2.1721240456,-1.4999091889,0.
 H,0,2.1142338168,-1.7199757444,0.
 H,0,-0.1038543305,-2.8920957141,0.
 Recover connectivity data from disk.
 NAtoms=     12 NQM=       12 NQMF=       0 NMMI=      0 NMMIF=      0
                NMic=       0 NMicF=      0.
                    Isotopes and Nuclear Properties:
 (Nuclear quadrupole moments (NQMom) in fm**2, nuclear magnetic moments (NMagM)
  in nuclear magnetons)

  Atom         1           2           3           4           5           6           7           8           9          10
 IAtWgt=          16          14          12          12          12          12          12           1           1           1
 AtmWgt=  15.9949146  14.0030740  12.0000000  12.0000000  12.0000000  12.0000000  12.0000000   1.0078250   1.0078250   1.0078250
 NucSpn=           0           2           0           0           0           0           0           1           1           1
 AtZEff=  -5.6000000  -4.5500000  -3.6000000  -3.6000000  -3.6000000  -3.6000000  -3.6000000  -1.0000000  -1.0000000  -1.0000000
 NQMom=    0.0000000   2.0440000   0.0000000   0.0000000   0.0000000   0.0000000   0.0000000   0.0000000   0.0000000   0.0000000
 NMagM=    0.0000000   0.4037610   0.0000000   0.0000000   0.0000000   0.0000000   0.0000000   2.7928460   2.7928460   2.7928460
 AtZNuc=   8.0000000   7.0000000   6.0000000   6.0000000   6.0000000   6.0000000   6.0000000   1.0000000   1.0000000   1.0000000

  Atom        11          12
 IAtWgt=           1           1
 AtmWgt=   1.0078250   1.0078250
 NucSpn=           1           1
 AtZEff=  -1.0000000  -1.0000000
 NQMom=    0.0000000   0.0000000
 NMagM=    2.7928460   2.7928460
 AtZNuc=   1.0000000   1.0000000
 Leave Link  101 at Fri Sep  3 00:21:34 2021, MaxMem=  2415919104 cpu:         1.7
 (Enter /gpfs/share/home/1801110325/software/g09e01/l103.exe)

 GradGradGradGradGradGradGradGradGradGradGradGradGradGradGradGradGradGrad
 Berny optimization.
 Initialization pass.
                           ----------------------------
                           !    Initial Parameters    !
                           ! (Angstroms and Degrees)  !
 --------------------------                            --------------------------
 ! Name  Definition              Value          Derivative Info.                !
 --------------------------------------------------------------------------------
 ! R1    R(1,3)                  1.354          estimate D2E/DX2                !
 ! R2    R(1,8)                  0.9691         estimate D2E/DX2                !
 ! R3    R(2,3)                  1.3258         estimate D2E/DX2                !
 ! R4    R(2,5)                  1.3394         estimate D2E/DX2                !
 ! R5    R(3,4)                  1.3978         estimate D2E/DX2                !
 ! R6    R(4,6)                  1.3829         estimate D2E/DX2                !
 ! R7    R(4,9)                  1.0809         estimate D2E/DX2                !
 ! R8    R(5,7)                  1.3852         estimate D2E/DX2                !
 ! R9    R(5,10)                 1.0844         estimate D2E/DX2                !
 ! R10   R(6,7)                  1.3958         estimate D2E/DX2                !
 ! R11   R(6,11)                 1.0831         estimate D2E/DX2                !
 ! R12   R(7,12)                 1.0814         estimate D2E/DX2                !
 ! A1    A(3,1,8)              105.9241         estimate D2E/DX2                !
 ! A2    A(3,2,5)              117.5187         estimate D2E/DX2                !
 ! A3    A(1,3,2)              117.0711         estimate D2E/DX2                !
 ! A4    A(1,3,4)              118.773          estimate D2E/DX2                !
 ! A5    A(2,3,4)              124.1559         estimate D2E/DX2                !
 ! A6    A(3,4,6)              117.3043         estimate D2E/DX2                !
 ! A7    A(3,4,9)              120.2172         estimate D2E/DX2                !
 ! A8    A(6,4,9)              122.4786         estimate D2E/DX2                !
 ! A9    A(2,5,7)              123.4046         estimate D2E/DX2                !
 ! A10   A(2,5,10)             115.6596         estimate D2E/DX2                !
 ! A11   A(7,5,10)             120.9357         estimate D2E/DX2                !
 ! A12   A(4,6,7)              119.6477         estimate D2E/DX2                !
 ! A13   A(4,6,11)             119.8914         estimate D2E/DX2                !
 ! A14   A(7,6,11)             120.4609         estimate D2E/DX2                !
 ! A15   A(5,7,6)              117.9688         estimate D2E/DX2                !
 ! A16   A(5,7,12)             120.6026         estimate D2E/DX2                !
 ! A17   A(6,7,12)             121.4286         estimate D2E/DX2                !
 ! D1    D(8,1,3,2)              0.0            estimate D2E/DX2                !
 ! D2    D(8,1,3,4)            180.0            estimate D2E/DX2                !
 ! D3    D(5,2,3,1)            180.0            estimate D2E/DX2                !
 ! D4    D(5,2,3,4)              0.0            estimate D2E/DX2                !
 ! D5    D(3,2,5,7)              0.0            estimate D2E/DX2                !
 ! D6    D(3,2,5,10)           180.0            estimate D2E/DX2                !
 ! D7    D(1,3,4,6)            180.0            estimate D2E/DX2                !
 ! D8    D(1,3,4,9)              0.0            estimate D2E/DX2                !
 ! D9    D(2,3,4,6)              0.0            estimate D2E/DX2                !
 ! D10   D(2,3,4,9)            180.0            estimate D2E/DX2                !
 ! D11   D(3,4,6,7)              0.0            estimate D2E/DX2                !
 ! D12   D(3,4,6,11)           180.0            estimate D2E/DX2                !
 ! D13   D(9,4,6,7)            180.0            estimate D2E/DX2                !
 ! D14   D(9,4,6,11)             0.0            estimate D2E/DX2                !
 ! D15   D(2,5,7,6)              0.0            estimate D2E/DX2                !
 ! D16   D(2,5,7,12)           180.0            estimate D2E/DX2                !
 ! D17   D(10,5,7,6)           180.0            estimate D2E/DX2                !
 ! D18   D(10,5,7,12)            0.0            estimate D2E/DX2                !
 ! D19   D(4,6,7,5)              0.0            estimate D2E/DX2                !
 ! D20   D(4,6,7,12)           180.0            estimate D2E/DX2                !
 ! D21   D(11,6,7,5)           180.0            estimate D2E/DX2                !
 ! D22   D(11,6,7,12)            0.0            estimate D2E/DX2                !
 --------------------------------------------------------------------------------
 Trust Radius=3.00D-01 FncErr=1.00D-07 GrdErr=1.00D-07
 Number of steps in this run=     61 maximum allowed number of steps=    100.
 GradGradGradGradGradGradGradGradGradGradGradGradGradGradGradGradGradGrad

 Leave Link  103 at Fri Sep  3 00:21:34 2021, MaxMem=  2415919104 cpu:         0.6
 (Enter /gpfs/share/home/1801110325/software/g09e01/l202.exe)
                          Input orientation:                          
 ---------------------------------------------------------------------
 Center     Atomic      Atomic             Coordinates (Angstroms)
 Number     Number       Type             X           Y           Z
 ---------------------------------------------------------------------
      1          8           0        0.005058    2.255767   -0.000000
      2          7           0       -1.178119    0.300055   -0.000000
      3          6           0        0.003215    0.901795   -0.000000
      4          6           0        1.227486    0.227326    0.000000
      5          6           0       -1.190406   -1.039327   -0.000000
      6          6           0        1.190158   -1.155073    0.000000
      7          6           0       -0.041084   -1.812521    0.000000
      8          1           0       -0.926470    2.522915   -0.000000
      9          1           0        2.154686    0.782944    0.000000
     10          1           0       -2.172124   -1.499909   -0.000000
     11          1           0        2.114234   -1.719976    0.000000
     12          1           0       -0.103854   -2.892096    0.000000
 ---------------------------------------------------------------------
                    Distance matrix (angstroms):
                    1          2          3          4          5
     1  O    0.000000
     2  N    2.285764   0.000000
     3  C    1.353973   1.325761   0.000000
     4  C    2.368312   2.406704   1.397765   0.000000
     5  C    3.505250   1.339438   2.278747   2.729581   0.000000
     6  C    3.610857   2.779592   2.374772   1.382903   2.383376
     7  C    4.068549   2.399130   2.714677   2.402133   1.385196
     8  H    0.969078   2.237060   1.868781   3.147897   3.572007
     9  H    2.605783   3.367606   2.154751   1.080931   3.809241
    10  H    4.341109   2.056190   3.240414   3.813226   1.084392
    11  H    4.500572   3.862656   3.366019   2.139698   3.374007
    12  H    5.149014   3.368066   3.795402   3.391646   2.147870
                    6          7          8          9         10
     6  C    0.000000
     7  C    1.395777   0.000000
     8  H    4.243549   4.424919   0.000000
     9  H    2.164769   3.399682   3.538506   0.000000
    10  H    3.379919   2.153848   4.211267   4.892106   0.000000
    11  H    1.083066   2.157303   5.219962   2.503246   4.292003
    12  H    2.166037   1.081399   5.477138   4.313574   2.493175
                   11         12
    11  H    0.000000
    12  H    2.508741   0.000000
 Stoichiometry    C5H5NO
 Framework group  CS[SG(C5H5NO)]
 Deg. of freedom    21
 Full point group                 CS      NOp   2
 RotChk:  IX=0 Diff= 4.12D-32
 Largest Abelian subgroup         CS      NOp   2
 Largest concise Abelian subgroup C1      NOp   1
                         Standard orientation:                         
 ---------------------------------------------------------------------
 Center     Atomic      Atomic             Coordinates (Angstroms)
 Number     Number       Type             X           Y           Z
 ---------------------------------------------------------------------
      1          8           0       -0.003103    2.254298    0.000000
      2          7           0       -1.179128    0.294278    0.000000
      3          6           0       -0.000000    0.900329    0.000000
      4          6           0        1.226727    0.230337    0.000000
      5          6           0       -1.186523   -1.045140    0.000000
      6          6           0        1.194448   -1.152190    0.000000
      7          6           0       -0.034384   -1.814130    0.000000
      8          1           0       -0.935600    2.518042    0.000000
      9          1           0        2.151891    0.789337    0.000000
     10          1           0       -2.166552   -1.509305    0.000000
     11          1           0        2.120581   -1.713713    0.000000
     12          1           0       -0.093211   -2.893927    0.000000
 ---------------------------------------------------------------------
 Rotational constants (GHZ):      5.8589019      2.7748139      1.8830088
 Leave Link  202 at Fri Sep  3 00:21:34 2021, MaxMem=  2415919104 cpu:         0.9
 (Enter /gpfs/share/home/1801110325/software/g09e01/l301.exe)
 Standard basis: GTBas1 (6D, 7F)
 Ernie: Thresh=  0.10000D-02 Tol=  0.10000D-05 Strict=F.
 There are    87 symmetry adapted cartesian basis functions of A'  symmetry.
 There are    28 symmetry adapted cartesian basis functions of A"  symmetry.
 There are    87 symmetry adapted basis functions of A'  symmetry.
 There are    28 symmetry adapted basis functions of A"  symmetry.
   115 basis functions,   216 primitive gaussians,   115 cartesian basis functions
    25 alpha electrons       25 beta electrons
       nuclear repulsion energy       276.0292508318 Hartrees.
 IExCor=    0 DFT=F Ex=HF Corr=None ExCW=0 ScaHFX=  1.000000
 ScaDFX=  1.000000  1.000000  1.000000  1.000000 ScalE2=  1.000000  1.000000
 IRadAn=      0 IRanWt=     -1 IRanGd=            0 ICorTp=0 IEmpDi=  4
 NAtoms=   12 NActive=   12 NUniq=   12 SFac= 1.00D+00 NAtFMM=   60 NAOKFM=F Big=F
 Integral buffers will be    131072 words long.
 Raffenetti 1 integral format.
 Two-electron integral symmetry is turned on.
 Leave Link  301 at Fri Sep  3 00:21:35 2021, MaxMem=  2415919104 cpu:         2.7
 (Enter /gpfs/share/home/1801110325/software/g09e01/l302.exe)
 NPDir=0 NMtPBC=     1 NCelOv=     1 NCel=       1 NClECP=     1 NCelD=      1
         NCelK=      1 NCelE2=     1 NClLst=     1 CellRange=     0.0.
 One-electron integrals computed using PRISM.
 NBasis=   115 RedAO= T EigKep=  1.15D-03  NBF=    87    28
 NBsUse=   115 1.00D-06 EigRej= -1.00D+00 NBFU=    87    28
 Leave Link  302 at Fri Sep  3 00:21:35 2021, MaxMem=  2415919104 cpu:         0.9
 (Enter /gpfs/share/home/1801110325/software/g09e01/l303.exe)
 DipDrv:  MaxL=1.
 Leave Link  303 at Fri Sep  3 00:21:35 2021, MaxMem=  2415919104 cpu:         0.6
 (Enter /gpfs/share/home/1801110325/software/g09e01/l401.exe)
 ExpMin= 1.61D-01 ExpMax= 5.48D+03 ExpMxC= 8.25D+02 IAcc=1 IRadAn=         1 AccDes= 0.00D+00
 Harris functional with IExCor=  205 and IRadAn=       1 diagonalized for initial guess.
 HarFok:  IExCor=  205 AccDes= 0.00D+00 IRadAn=         1 IDoV= 1 UseB2=F ITyADJ=14
 ICtDFT=  3500011 ScaDFX=  1.000000  1.000000  1.000000  1.000000
 FoFCou: FMM=F IPFlag=           0 FMFlag=      100000 FMFlg1=           0
         NFxFlg=           0 DoJE=T BraDBF=F KetDBF=T FulRan=T
         wScrn=  0.000000 ICntrl=     500 IOpCl=  0 I1Cent=   200000004 NGrid=           0
         NMat0=    1 NMatS0=      1 NMatT0=    0 NMatD0=    1 NMtDS0=    0 NMtDT0=    0
 Petite list used in FoFCou.
 Harris En= -321.900190082688    
 JPrj=0 DoOrth=F DoCkMO=F.
 Initial guess orbital symmetries:
       Occupied  (A') (A') (A') (A') (A') (A') (A') (A') (A') (A')
                 (A') (A') (A') (A') (A') (A') (A') (A') (A") (A')
                 (A') (A") (A") (A') (A")
       Virtual   (A") (A") (A") (A') (A') (A') (A') (A') (A') (A')
                 (A') (A') (A') (A') (A') (A') (A") (A') (A') (A')
                 (A") (A") (A') (A') (A') (A") (A") (A') (A') (A')
                 (A') (A') (A") (A') (A') (A") (A') (A') (A') (A')
                 (A') (A') (A") (A') (A') (A") (A') (A") (A") (A")
                 (A') (A") (A') (A') (A") (A') (A') (A') (A') (A')
                 (A') (A") (A') (A') (A") (A') (A") (A') (A") (A")
                 (A') (A') (A") (A') (A') (A') (A") (A') (A') (A')
                 (A') (A') (A') (A') (A') (A') (A') (A') (A') (A')
 The electronic state of the initial guess is 1-A'.
 Leave Link  401 at Fri Sep  3 00:21:35 2021, MaxMem=  2415919104 cpu:         1.8
 (Enter /gpfs/share/home/1801110325/software/g09e01/l502.exe)
 Closed shell SCF:
 Using DIIS extrapolation, IDIIS=  1040.
 Integral symmetry usage will be decided dynamically.
 Keep R1 ints in memory in symmetry-blocked form, NReq=34256320.
 IVT=       59824 IEndB=       59824 NGot=  2415919104 MDV=  2403910685
 LenX=  2403910685 LenY=  2403897019
 Requested convergence on RMS density matrix=1.00D-08 within 128 cycles.
 Requested convergence on MAX density matrix=1.00D-06.
 Requested convergence on             energy=1.00D-06.
 No special actions if energy rises.
 FoFCou: FMM=F IPFlag=           0 FMFlag=           0 FMFlg1=           0
         NFxFlg=           0 DoJE=F BraDBF=F KetDBF=F FulRan=T
         wScrn=  0.000000 ICntrl=     600 IOpCl=  0 I1Cent=           0 NGrid=           0
         NMat0=    1 NMatS0=   6670 NMatT0=    0 NMatD0=    1 NMtDS0=    0 NMtDT0=    0
 Petite list used in FoFCou.

 Cycle   1  Pass 1  IDiag  1:
 E= -321.314192990592    
 DIIS: error= 6.43D-02 at cycle   1 NSaved=   1.
 NSaved= 1 IEnMin= 1 EnMin= -321.314192990592     IErMin= 1 ErrMin= 6.43D-02
 ErrMax= 6.43D-02  0.00D+00 EMaxC= 1.00D-01 BMatC= 4.33D-01 BMatP= 4.33D-01
 IDIUse=3 WtCom= 3.57D-01 WtEn= 6.43D-01
 Coeff-Com:  0.100D+01
 Coeff-En:   0.100D+01
 Coeff:      0.100D+01
 Gap=     0.469 Goal=   None    Shift=    0.000
 GapD=    0.469 DampG=2.000 DampE=0.500 DampFc=1.0000 IDamp=-1.
 RMSDP=6.24D-03 MaxDP=9.34D-02              OVMax= 1.36D-01

 Cycle   2  Pass 1  IDiag  1:
 E= -321.534821639524     Delta-E=       -0.220628648932 Rises=F Damp=F
 DIIS: error= 1.21D-02 at cycle   2 NSaved=   2.
 NSaved= 2 IEnMin= 2 EnMin= -321.534821639524     IErMin= 2 ErrMin= 1.21D-02
 ErrMax= 1.21D-02  0.00D+00 EMaxC= 1.00D-01 BMatC= 3.57D-02 BMatP= 4.33D-01
 IDIUse=3 WtCom= 8.79D-01 WtEn= 1.21D-01
 Coeff-Com:  0.131D+00 0.869D+00
 Coeff-En:   0.000D+00 0.100D+01
 Coeff:      0.115D+00 0.885D+00
 Gap=     0.450 Goal=   None    Shift=    0.000
 RMSDP=1.94D-03 MaxDP=2.61D-02 DE=-2.21D-01 OVMax= 4.97D-02

 Cycle   3  Pass 1  IDiag  1:
 E= -321.561979614360     Delta-E=       -0.027157974837 Rises=F Damp=F
 DIIS: error= 4.00D-03 at cycle   3 NSaved=   3.
 NSaved= 3 IEnMin= 3 EnMin= -321.561979614360     IErMin= 3 ErrMin= 4.00D-03
 ErrMax= 4.00D-03  0.00D+00 EMaxC= 1.00D-01 BMatC= 3.62D-03 BMatP= 3.57D-02
 IDIUse=3 WtCom= 9.60D-01 WtEn= 4.00D-02
 Coeff-Com: -0.216D-01 0.203D+00 0.819D+00
 Coeff-En:   0.000D+00 0.000D+00 0.100D+01
 Coeff:     -0.207D-01 0.195D+00 0.826D+00
 Gap=     0.447 Goal=   None    Shift=    0.000
 RMSDP=4.96D-04 MaxDP=8.85D-03 DE=-2.72D-02 OVMax= 1.91D-02

 Cycle   4  Pass 1  IDiag  1:
 E= -321.565242213238     Delta-E=       -0.003262598878 Rises=F Damp=F
 DIIS: error= 1.12D-03 at cycle   4 NSaved=   4.
 NSaved= 4 IEnMin= 4 EnMin= -321.565242213238     IErMin= 4 ErrMin= 1.12D-03
 ErrMax= 1.12D-03  0.00D+00 EMaxC= 1.00D-01 BMatC= 2.07D-04 BMatP= 3.62D-03
 IDIUse=3 WtCom= 9.89D-01 WtEn= 1.12D-02
 Coeff-Com: -0.854D-02 0.411D-01 0.251D+00 0.716D+00
 Coeff-En:   0.000D+00 0.000D+00 0.000D+00 0.100D+01
 Coeff:     -0.845D-02 0.406D-01 0.248D+00 0.719D+00
 Gap=     0.446 Goal=   None    Shift=    0.000
 RMSDP=1.41D-04 MaxDP=2.73D-03 DE=-3.26D-03 OVMax= 4.43D-03

 Cycle   5  Pass 1  IDiag  1:
 E= -321.565461347273     Delta-E=       -0.000219134035 Rises=F Damp=F
 DIIS: error= 3.42D-04 at cycle   5 NSaved=   5.
 NSaved= 5 IEnMin= 5 EnMin= -321.565461347273     IErMin= 5 ErrMin= 3.42D-04
 ErrMax= 3.42D-04  0.00D+00 EMaxC= 1.00D-01 BMatC= 1.38D-05 BMatP= 2.07D-04
 IDIUse=3 WtCom= 9.97D-01 WtEn= 3.42D-03
 Coeff-Com:  0.190D-02-0.207D-01-0.835D-01 0.307D-01 0.107D+01
 Coeff-En:   0.000D+00 0.000D+00 0.000D+00 0.000D+00 0.100D+01
 Coeff:      0.190D-02-0.206D-01-0.832D-01 0.306D-01 0.107D+01
 Gap=     0.447 Goal=   None    Shift=    0.000
 RMSDP=6.51D-05 MaxDP=9.61D-04 DE=-2.19D-04 OVMax= 2.34D-03

 Cycle   6  Pass 1  IDiag  1:
 E= -321.565490436397     Delta-E=       -0.000029089124 Rises=F Damp=F
 DIIS: error= 1.17D-04 at cycle   6 NSaved=   6.
 NSaved= 6 IEnMin= 6 EnMin= -321.565490436397     IErMin= 6 ErrMin= 1.17D-04
 ErrMax= 1.17D-04  0.00D+00 EMaxC= 1.00D-01 BMatC= 1.42D-06 BMatP= 1.38D-05
 IDIUse=3 WtCom= 9.99D-01 WtEn= 1.17D-03
 Coeff-Com:  0.758D-03-0.505D-02-0.268D-01-0.617D-01 0.797D-01 0.101D+01
 Coeff-En:   0.000D+00 0.000D+00 0.000D+00 0.000D+00 0.000D+00 0.100D+01
 Coeff:      0.757D-03-0.504D-02-0.268D-01-0.617D-01 0.797D-01 0.101D+01
 Gap=     0.447 Goal=   None    Shift=    0.000
 RMSDP=1.90D-05 MaxDP=3.65D-04 DE=-2.91D-05 OVMax= 7.54D-04

 Cycle   7  Pass 1  IDiag  1:
 E= -321.565493906752     Delta-E=       -0.000003470355 Rises=F Damp=F
 DIIS: error= 4.85D-05 at cycle   7 NSaved=   7.
 NSaved= 7 IEnMin= 7 EnMin= -321.565493906752     IErMin= 7 ErrMin= 4.85D-05
 ErrMax= 4.85D-05  0.00D+00 EMaxC= 1.00D-01 BMatC= 2.32D-07 BMatP= 1.42D-06
 IDIUse=1 WtCom= 1.00D+00 WtEn= 0.00D+00
 Coeff-Com: -0.114D-03 0.192D-02 0.648D-02-0.150D-01-0.111D+00 0.138D+00
 Coeff-Com:  0.980D+00
 Coeff:     -0.114D-03 0.192D-02 0.648D-02-0.150D-01-0.111D+00 0.138D+00
 Coeff:      0.980D+00
 Gap=     0.447 Goal=   None    Shift=    0.000
 RMSDP=7.83D-06 MaxDP=1.45D-04 DE=-3.47D-06 OVMax= 3.89D-04

 Cycle   8  Pass 1  IDiag  1:
 E= -321.565494565088     Delta-E=       -0.000000658337 Rises=F Damp=F
 DIIS: error= 3.04D-05 at cycle   8 NSaved=   8.
 NSaved= 8 IEnMin= 8 EnMin= -321.565494565088     IErMin= 8 ErrMin= 3.04D-05
 ErrMax= 3.04D-05  0.00D+00 EMaxC= 1.00D-01 BMatC= 4.14D-08 BMatP= 2.32D-07
 IDIUse=1 WtCom= 1.00D+00 WtEn= 0.00D+00
 Coeff-Com: -0.122D-03 0.870D-03 0.407D-02 0.104D-01 0.121D-02-0.215D+00
 Coeff-Com: -0.209D-01 0.122D+01
 Coeff:     -0.122D-03 0.870D-03 0.407D-02 0.104D-01 0.121D-02-0.215D+00
 Coeff:     -0.209D-01 0.122D+01
 Gap=     0.447 Goal=   None    Shift=    0.000
 RMSDP=4.46D-06 MaxDP=9.57D-05 DE=-6.58D-07 OVMax= 2.86D-04

 Cycle   9  Pass 1  IDiag  1:
 E= -321.565494736123     Delta-E=       -0.000000171035 Rises=F Damp=F
 DIIS: error= 8.42D-06 at cycle   9 NSaved=   9.
 NSaved= 9 IEnMin= 9 EnMin= -321.565494736123     IErMin= 9 ErrMin= 8.42D-06
 ErrMax= 8.42D-06  0.00D+00 EMaxC= 1.00D-01 BMatC= 6.67D-09 BMatP= 4.14D-08
 IDIUse=1 WtCom= 1.00D+00 WtEn= 0.00D+00
 Coeff-Com:  0.434D-05-0.145D-03-0.630D-03 0.155D-02 0.147D-01-0.395D-01
 Coeff-Com: -0.776D-01 0.321D-01 0.107D+01
 Coeff:      0.434D-05-0.145D-03-0.630D-03 0.155D-02 0.147D-01-0.395D-01
 Coeff:     -0.776D-01 0.321D-01 0.107D+01
 Gap=     0.447 Goal=   None    Shift=    0.000
 RMSDP=1.64D-06 MaxDP=3.24D-05 DE=-1.71D-07 OVMax= 9.77D-05

 Cycle  10  Pass 1  IDiag  1:
 E= -321.565494762107     Delta-E=       -0.000000025984 Rises=F Damp=F
 DIIS: error= 5.15D-06 at cycle  10 NSaved=  10.
 NSaved=10 IEnMin=10 EnMin= -321.565494762107     IErMin=10 ErrMin= 5.15D-06
 ErrMax= 5.15D-06  0.00D+00 EMaxC= 1.00D-01 BMatC= 1.80D-09 BMatP= 6.67D-09
 IDIUse=1 WtCom= 1.00D+00 WtEn= 0.00D+00
 Coeff-Com:  0.424D-04-0.320D-03-0.157D-02-0.327D-02 0.466D-02 0.557D-01
 Coeff-Com:  0.155D-01-0.402D+00 0.123D+00 0.121D+01
 Coeff:      0.424D-04-0.320D-03-0.157D-02-0.327D-02 0.466D-02 0.557D-01
 Coeff:      0.155D-01-0.402D+00 0.123D+00 0.121D+01
 Gap=     0.447 Goal=   None    Shift=    0.000
 RMSDP=1.16D-06 MaxDP=2.23D-05 DE=-2.60D-08 OVMax= 6.65D-05

 Cycle  11  Pass 1  IDiag  1:
 E= -321.565494770030     Delta-E=       -0.000000007923 Rises=F Damp=F
 DIIS: error= 1.45D-06 at cycle  11 NSaved=  11.
 NSaved=11 IEnMin=11 EnMin= -321.565494770030     IErMin=11 ErrMin= 1.45D-06
 ErrMax= 1.45D-06  0.00D+00 EMaxC= 1.00D-01 BMatC= 1.28D-10 BMatP= 1.80D-09
 IDIUse=1 WtCom= 1.00D+00 WtEn= 0.00D+00
 Coeff-Com: -0.427D-05 0.521D-04 0.216D-03 0.770D-04-0.207D-02-0.238D-02
 Coeff-Com:  0.157D-01 0.301D-01-0.145D+00-0.117D+00 0.122D+01
 Coeff:     -0.427D-05 0.521D-04 0.216D-03 0.770D-04-0.207D-02-0.238D-02
 Coeff:      0.157D-01 0.301D-01-0.145D+00-0.117D+00 0.122D+01
 Gap=     0.447 Goal=   None    Shift=    0.000
 RMSDP=3.15D-07 MaxDP=6.31D-06 DE=-7.92D-09 OVMax= 1.88D-05

 Cycle  12  Pass 1  IDiag  1:
 E= -321.565494770585     Delta-E=       -0.000000000555 Rises=F Damp=F
 DIIS: error= 3.74D-07 at cycle  12 NSaved=  12.
 NSaved=12 IEnMin=12 EnMin= -321.565494770585     IErMin=12 ErrMin= 3.74D-07
 ErrMax= 3.74D-07  0.00D+00 EMaxC= 1.00D-01 BMatC= 1.39D-11 BMatP= 1.28D-10
 IDIUse=1 WtCom= 1.00D+00 WtEn= 0.00D+00
 Coeff-Com: -0.428D-05 0.357D-04 0.165D-03 0.301D-03-0.692D-03-0.556D-02
 Coeff-Com:  0.112D-02 0.363D-01-0.317D-01-0.132D+00 0.160D+00 0.972D+00
 Coeff:     -0.428D-05 0.357D-04 0.165D-03 0.301D-03-0.692D-03-0.556D-02
 Coeff:      0.112D-02 0.363D-01-0.317D-01-0.132D+00 0.160D+00 0.972D+00
 Gap=     0.447 Goal=   None    Shift=    0.000
 RMSDP=8.75D-08 MaxDP=1.80D-06 DE=-5.55D-10 OVMax= 4.47D-06

 Cycle  13  Pass 1  IDiag  1:
 E= -321.565494770618     Delta-E=       -0.000000000033 Rises=F Damp=F
 DIIS: error= 7.44D-08 at cycle  13 NSaved=  13.
 NSaved=13 IEnMin=13 EnMin= -321.565494770618     IErMin=13 ErrMin= 7.44D-08
 ErrMax= 7.44D-08  0.00D+00 EMaxC= 1.00D-01 BMatC= 8.96D-13 BMatP= 1.39D-11
 IDIUse=1 WtCom= 1.00D+00 WtEn= 0.00D+00
 Coeff-Com:  0.238D-06-0.320D-05-0.153D-04 0.781D-05 0.189D-03-0.110D-03
 Coeff-Com: -0.104D-02-0.180D-02 0.159D-01 0.766D-02-0.112D+00 0.397D-01
 Coeff-Com:  0.105D+01
 Coeff:      0.238D-06-0.320D-05-0.153D-04 0.781D-05 0.189D-03-0.110D-03
 Coeff:     -0.104D-02-0.180D-02 0.159D-01 0.766D-02-0.112D+00 0.397D-01
 Coeff:      0.105D+01
 Gap=     0.447 Goal=   None    Shift=    0.000
 RMSDP=1.80D-08 MaxDP=3.42D-07 DE=-3.32D-11 OVMax= 5.63D-07

 Cycle  14  Pass 1  IDiag  1:
 E= -321.565494770623     Delta-E=       -0.000000000004 Rises=F Damp=F
 DIIS: error= 3.02D-08 at cycle  14 NSaved=  14.
 NSaved=14 IEnMin=14 EnMin= -321.565494770623     IErMin=14 ErrMin= 3.02D-08
 ErrMax= 3.02D-08  0.00D+00 EMaxC= 1.00D-01 BMatC= 7.01D-14 BMatP= 8.96D-13
 IDIUse=1 WtCom= 1.00D+00 WtEn= 0.00D+00
 Coeff-Com:  0.244D-06-0.201D-05-0.945D-05-0.163D-04 0.287D-04 0.346D-03
 Coeff-Com:  0.156D-03-0.231D-02 0.529D-03 0.818D-02 0.553D-03-0.757D-01
 Coeff-Com: -0.935D-01 0.116D+01
 Coeff:      0.244D-06-0.201D-05-0.945D-05-0.163D-04 0.287D-04 0.346D-03
 Coeff:      0.156D-03-0.231D-02 0.529D-03 0.818D-02 0.553D-03-0.757D-01
 Coeff:     -0.935D-01 0.116D+01
 Gap=     0.447 Goal=   None    Shift=    0.000
 RMSDP=5.80D-09 MaxDP=9.99D-08 DE=-4.43D-12 OVMax= 2.50D-07

 SCF Done:  E(RHF) =  -321.565494771     A.U. after   14 cycles
            NFock= 14  Conv=0.58D-08     -V/T= 2.0022
 KE= 3.208479119839D+02 PE=-1.304644030025D+03 EE= 3.862013724387D+02
 Leave Link  502 at Fri Sep  3 00:21:37 2021, MaxMem=  2415919104 cpu:         5.9
 (Enter /gpfs/share/home/1801110325/software/g09e01/l601.exe)
 Copying SCF densities to generalized density rwf, IOpCl= 0 IROHF=0.

 **********************************************************************

            Population analysis using the SCF density.

 **********************************************************************

 Orbital symmetries:
       Occupied  (A') (A') (A') (A') (A') (A') (A') (A') (A') (A')
                 (A') (A') (A') (A') (A') (A') (A') (A") (A') (A')
                 (A') (A") (A') (A") (A")
       Virtual   (A") (A") (A') (A') (A') (A') (A') (A") (A') (A')
                 (A') (A') (A') (A') (A') (A') (A") (A') (A') (A")
                 (A') (A") (A') (A') (A") (A') (A") (A') (A') (A')
                 (A') (A') (A") (A') (A') (A') (A') (A") (A') (A')
                 (A') (A') (A') (A") (A') (A") (A') (A") (A') (A")
                 (A") (A") (A') (A') (A") (A') (A') (A') (A') (A')
                 (A') (A") (A') (A') (A") (A') (A") (A') (A") (A")
                 (A') (A') (A") (A') (A') (A') (A") (A') (A') (A')
                 (A') (A') (A') (A') (A') (A') (A') (A') (A') (A')
 The electronic state is 1-A'.
 Alpha  occ. eigenvalues --  -20.59657 -15.56555 -11.34067 -11.28190 -11.26399
 Alpha  occ. eigenvalues --  -11.23740 -11.23438  -1.41843  -1.25203  -1.09110
 Alpha  occ. eigenvalues --   -1.02426  -0.87453  -0.84972  -0.74228  -0.70352
 Alpha  occ. eigenvalues --   -0.66277  -0.61860  -0.60532  -0.59057  -0.56771
 Alpha  occ. eigenvalues --   -0.53014  -0.50471  -0.42860  -0.38583  -0.32613
 Alpha virt. eigenvalues --    0.12077   0.15457   0.24106   0.24655   0.29138
 Alpha virt. eigenvalues --    0.31681   0.32265   0.36219   0.41377   0.45448
 Alpha virt. eigenvalues --    0.48074   0.50568   0.52507   0.64724   0.71427
 Alpha virt. eigenvalues --    0.72644   0.73713   0.78188   0.81264   0.81443
 Alpha virt. eigenvalues --    0.82342   0.82961   0.85949   0.89286   0.90153
 Alpha virt. eigenvalues --    0.92147   0.93391   1.00462   1.07846   1.09206
 Alpha virt. eigenvalues --    1.11248   1.11767   1.13258   1.15958   1.16810
 Alpha virt. eigenvalues --    1.20209   1.22463   1.23650   1.28204   1.28847
 Alpha virt. eigenvalues --    1.33885   1.40863   1.49244   1.49292   1.51086
 Alpha virt. eigenvalues --    1.60910   1.64952   1.71573   1.72289   1.73869
 Alpha virt. eigenvalues --    1.75840   1.79058   1.88982   1.96692   2.02738
 Alpha virt. eigenvalues --    2.08292   2.11131   2.13346   2.23672   2.24146
 Alpha virt. eigenvalues --    2.29382   2.30387   2.41981   2.45893   2.48735
 Alpha virt. eigenvalues --    2.50827   2.56265   2.61529   2.64852   2.66014
 Alpha virt. eigenvalues --    2.79393   2.85197   2.85908   2.90902   2.97441
 Alpha virt. eigenvalues --    3.01553   3.04680   3.07644   3.14744   3.24765
 Alpha virt. eigenvalues --    3.30058   3.52735   3.79454   4.34114   4.48581
 Alpha virt. eigenvalues --    4.57222   4.64272   4.67240   4.82839   5.05579
          Condensed to atoms (all electrons):
               1          2          3          4          5          6
     1  O    8.338385  -0.080813   0.285048  -0.056848   0.002365   0.001410
     2  N   -0.080813   6.936995   0.501152  -0.072166   0.450921  -0.023433
     3  C    0.285048   0.501152   4.171957   0.546853  -0.063327  -0.049266
     4  C   -0.056848  -0.072166   0.546853   5.049686  -0.023021   0.551138
     5  C    0.002365   0.450921  -0.063327  -0.023021   4.670343  -0.051235
     6  C    0.001410  -0.023433  -0.049266   0.551138  -0.051235   4.844786
     7  C    0.000215  -0.055393  -0.023960  -0.050110   0.551276   0.525953
     8  H    0.256584   0.009073  -0.023505   0.005766   0.000646  -0.000186
     9  H    0.000284   0.003255  -0.021571   0.373739  -0.000096  -0.028230
    10  H   -0.000036  -0.042182   0.003050  -0.000482   0.402968   0.003005
    11  H   -0.000046  -0.000085   0.002129  -0.029508   0.002535   0.383123
    12  H    0.000003   0.002948   0.000310   0.002378  -0.026155  -0.028333
               7          8          9         10         11         12
     1  O    0.000215   0.256584   0.000284  -0.000036  -0.000046   0.000003
     2  N   -0.055393   0.009073   0.003255  -0.042182  -0.000085   0.002948
     3  C   -0.023960  -0.023505  -0.021571   0.003050   0.002129   0.000310
     4  C   -0.050110   0.005766   0.373739  -0.000482  -0.029508   0.002378
     5  C    0.551276   0.000646  -0.000096   0.402968   0.002535  -0.026155
     6  C    0.525953  -0.000186  -0.028230   0.003005   0.383123  -0.028333
     7  C    5.032419   0.000046   0.002481  -0.048294  -0.029366   0.379499
     8  H    0.000046   0.283310  -0.000218  -0.000051   0.000004  -0.000001
     9  H    0.002481  -0.000218   0.444698   0.000013  -0.001837  -0.000066
    10  H   -0.048294  -0.000051   0.000013   0.472908  -0.000089  -0.000019
    11  H   -0.029366   0.000004  -0.001837  -0.000089   0.455452  -0.001511
    12  H    0.379499  -0.000001  -0.000066  -0.000019  -0.001511   0.461596
 Mulliken charges:
               1
     1  O   -0.746552
     2  N   -0.630273
     3  C    0.671131
     4  C   -0.297423
     5  C    0.082778
     6  C   -0.128734
     7  C   -0.284766
     8  H    0.468532
     9  H    0.227549
    10  H    0.209209
    11  H    0.219198
    12  H    0.209350
 Sum of Mulliken charges =  -0.00000
 Mulliken charges with hydrogens summed into heavy atoms:
               1
     1  O   -0.278020
     2  N   -0.630273
     3  C    0.671131
     4  C   -0.069874
     5  C    0.291987
     6  C    0.090464
     7  C   -0.075416
 Electronic spatial extent (au):  <R**2>=            628.6637
 Charge=             -0.0000 electrons
 Dipole moment (field-independent basis, Debye):
    X=              0.4237    Y=             -1.5960    Z=             -0.0000  Tot=              1.6513
 Quadrupole moment (field-independent basis, Debye-Ang):
   XX=            -36.9365   YY=            -36.7001   ZZ=            -43.0840
   XY=             -2.3540   XZ=              0.0000   YZ=             -0.0000
 Traceless Quadrupole moment (field-independent basis, Debye-Ang):
   XX=              1.9703   YY=              2.2068   ZZ=             -4.1771
   XY=             -2.3540   XZ=              0.0000   YZ=             -0.0000
 Octapole moment (field-independent basis, Debye-Ang**2):
  XXX=              5.8608  YYY=              2.5226  ZZZ=              0.0000  XYY=            -11.8476
  XXY=              0.1831  XXZ=              0.0000  XZZ=             -1.5839  YZZ=              5.6386
  YYZ=             -0.0000  XYZ=              0.0000
 Hexadecapole moment (field-independent basis, Debye-Ang**3):
 XXXX=           -257.8576 YYYY=           -453.7063 ZZZZ=            -42.4373 XXXY=              8.1693
 XXXZ=              0.0000 YYYX=            -31.4551 YYYZ=             -0.0000 ZZZX=              0.0000
 ZZZY=              0.0000 XXYY=           -104.0076 XXZZ=            -57.6463 YYZZ=            -94.9442
 XXYZ=             -0.0000 YYXZ=              0.0000 ZZXY=              0.7524
 N-N= 2.760292508318D+02 E-N=-1.304644030368D+03  KE= 3.208479119839D+02
 Symmetry A'   KE= 3.096917078317D+02
 Symmetry A"   KE= 1.115620415219D+01
 No NMR shielding tensors so no spin-rotation constants.
 Leave Link  601 at Fri Sep  3 00:21:37 2021, MaxMem=  2415919104 cpu:         1.2
 (Enter /gpfs/share/home/1801110325/software/g09e01/l701.exe)
 Compute integral first derivatives.
 ... and contract with generalized density number  0.
 Leave Link  701 at Fri Sep  3 00:21:37 2021, MaxMem=  2415919104 cpu:         0.8
 (Enter /gpfs/share/home/1801110325/software/g09e01/l702.exe)
 L702 exits ... SP integral derivatives will be done elsewhere.
 Leave Link  702 at Fri Sep  3 00:21:37 2021, MaxMem=  2415919104 cpu:         0.1
 (Enter /gpfs/share/home/1801110325/software/g09e01/l703.exe)
 Compute integral first derivatives, UseDBF=F ICtDFT=           0.
 Integral derivatives from FoFJK, PRISM(SPDF).
 Calling FoFJK, ICntrl=      2127 FMM=F ISym2X=1 I1Cent= 0 IOpClX= 0 NMat=1 NMatS=1 NMatT=0.
 FoFJK:  IHMeth= 1 ICntrl=    2127 DoSepK=F KAlg= 0 I1Cent=   0 FoldK=F
 IRaf=         0 NMat=   1 IRICut=       1 DoRegI=T DoRafI=F ISym2E= 1.
 FoFCou: FMM=F IPFlag=           0 FMFlag=      100000 FMFlg1=         800
         NFxFlg=           0 DoJE=F BraDBF=F KetDBF=F FulRan=T
         wScrn=  0.000000 ICntrl=    2127 IOpCl=  0 I1Cent=           0 NGrid=           0
         NMat0=    1 NMatS0=      1 NMatT0=    0 NMatD0=    1 NMtDS0=    0 NMtDT0=    0
 Petite list used in FoFCou.
 Leave Link  703 at Fri Sep  3 00:21:38 2021, MaxMem=  2415919104 cpu:         2.9
 (Enter /gpfs/share/home/1801110325/software/g09e01/l716.exe)
 Dipole        = 1.66703473D-01-6.27909363D-01-2.16342300D-33
 ***** Axes restored to original set *****
 -------------------------------------------------------------------
 Center     Atomic                   Forces (Hartrees/Bohr)
 Number     Number              X              Y              Z
 -------------------------------------------------------------------
      1        8          -0.020161960   -0.013908684   -0.000000000
      2        7           0.016531704   -0.004600418    0.000000000
      3        6          -0.010932947    0.003525243   -0.000000000
      4        6           0.000800585   -0.001800564    0.000000000
      5        6           0.003930877    0.006966670   -0.000000000
      6        6           0.000148464    0.004364696   -0.000000000
      7        6          -0.004849385   -0.000961358   -0.000000000
      8        1           0.018866282   -0.002780103    0.000000000
      9        1          -0.005845563   -0.002752123   -0.000000000
     10        1           0.006411077    0.003001463    0.000000000
     11        1          -0.005137555    0.002974837   -0.000000000
     12        1           0.000238420    0.005970340   -0.000000000
 -------------------------------------------------------------------
 Cartesian Forces:  Max     0.020161960 RMS     0.006799149
 Leave Link  716 at Fri Sep  3 00:21:38 2021, MaxMem=  2415919104 cpu:         0.1
 (Enter /gpfs/share/home/1801110325/software/g09e01/l103.exe)

 GradGradGradGradGradGradGradGradGradGradGradGradGradGradGradGradGradGrad
 Berny optimization.
 FormGI is forming the generalized inverse of G from B-inverse, IUseBI=4.
 Internal  Forces:  Max     0.019328709 RMS     0.005680904
 Search for a local minimum.
 Step number   1 out of a maximum of   61
 All quantities printed in internal units (Hartrees-Bohrs-Radians)
 RMS Force = .56809D-02 SwitMx=.10000D-02 MixMth= 1
 Mixed Optimization -- RFO/linear search
 Second derivative matrix not updated -- first step.
 ITU=  0
     Eigenvalues ---    0.02182   0.02204   0.02220   0.02248   0.02271
     Eigenvalues ---    0.02301   0.02306   0.02352   0.02508   0.16000
     Eigenvalues ---    0.16000   0.16000   0.16000   0.16000   0.22000
     Eigenvalues ---    0.22422   0.24441   0.25000   0.35469   0.35626
     Eigenvalues ---    0.35826   0.35882   0.42797   0.44768   0.46985
     Eigenvalues ---    0.47988   0.53566   0.54185   0.55734   0.58960
 RFO step:  Lambda=-3.28264310D-03 EMin= 2.18209969D-02
 Linear search not attempted -- first point.
 Iteration  1 RMS(Cart)=  0.01598064 RMS(Int)=  0.00012887
 Iteration  2 RMS(Cart)=  0.00016864 RMS(Int)=  0.00000641
 Iteration  3 RMS(Cart)=  0.00000006 RMS(Int)=  0.00000641
 ITry= 1 IFail=0 DXMaxC= 5.37D-02 DCOld= 1.00D+10 DXMaxT= 3.00D-01 DXLimC= 3.00D+00 Rises=F
 ClnCor:  largest displacement from symmetrization is 2.55D-12 for atom    11.
 Variable       Old X    -DE/DX   Delta X   Delta X   Delta X     New X
                                 (Linear)    (Quad)   (Total)
    R1        2.55864  -0.01669   0.00000  -0.03062  -0.03062   2.52802
    R2        1.83129  -0.01890   0.00000  -0.03507  -0.03507   1.79622
    R3        2.50533  -0.01933   0.00000  -0.03275  -0.03274   2.47259
    R4        2.53117  -0.01333   0.00000  -0.02402  -0.02401   2.50716
    R5        2.64139  -0.00654   0.00000  -0.01435  -0.01435   2.62704
    R6        2.61331  -0.00899   0.00000  -0.01731  -0.01732   2.59599
    R7        2.04266  -0.00643   0.00000  -0.01775  -0.01775   2.02491
    R8        2.61764  -0.00986   0.00000  -0.02023  -0.02023   2.59742
    R9        2.04920  -0.00708   0.00000  -0.01978  -0.01978   2.02943
   R10        2.63764  -0.00520   0.00000  -0.00986  -0.00987   2.62777
   R11        2.04670  -0.00593   0.00000  -0.01651  -0.01651   2.03019
   R12        2.04355  -0.00597   0.00000  -0.01652  -0.01652   2.02702
    A1        1.84872   0.00463   0.00000   0.02836   0.02836   1.87708
    A2        2.05109   0.00151   0.00000  -0.00016  -0.00013   2.05095
    A3        2.04328  -0.00000   0.00000   0.00114   0.00114   2.04441
    A4        2.07298  -0.00138   0.00000  -0.00428  -0.00429   2.06869
    A5        2.16693   0.00138   0.00000   0.00314   0.00315   2.17008
    A6        2.04735  -0.00118   0.00000  -0.00281  -0.00283   2.04452
    A7        2.09819  -0.00007   0.00000  -0.00262  -0.00261   2.09557
    A8        2.13765   0.00125   0.00000   0.00543   0.00544   2.14310
    A9        2.15382   0.00201   0.00000   0.00742   0.00743   2.16125
   A10        2.01864  -0.00100   0.00000  -0.00368  -0.00368   2.01496
   A11        2.11073  -0.00101   0.00000  -0.00375  -0.00375   2.10697
   A12        2.08825  -0.00115   0.00000   0.00041   0.00039   2.08864
   A13        2.09250   0.00072   0.00000   0.00068   0.00069   2.09319
   A14        2.10244   0.00043   0.00000  -0.00109  -0.00108   2.10136
   A15        2.05894  -0.00257   0.00000  -0.00801  -0.00802   2.05093
   A16        2.10491   0.00117   0.00000   0.00333   0.00333   2.10824
   A17        2.11933   0.00140   0.00000   0.00468   0.00469   2.12402
    D1        0.00000   0.00000   0.00000   0.00000   0.00000   0.00000
    D2        3.14159  -0.00000   0.00000  -0.00000   0.00000   3.14159
    D3        3.14159  -0.00000   0.00000  -0.00000   0.00000   3.14159
    D4        0.00000  -0.00000   0.00000  -0.00000   0.00000   0.00000
    D5        0.00000   0.00000   0.00000   0.00000  -0.00000   0.00000
    D6        3.14159  -0.00000   0.00000   0.00000   0.00000   3.14159
    D7        3.14159   0.00000   0.00000   0.00000   0.00000   3.14159
    D8        0.00000   0.00000   0.00000   0.00000   0.00000   0.00000
    D9       -0.00000   0.00000   0.00000  -0.00000   0.00000   0.00000
   D10        3.14159  -0.00000   0.00000  -0.00000   0.00000   3.14159
   D11        0.00000   0.00000   0.00000   0.00000   0.00000   0.00000
   D12        3.14159  -0.00000   0.00000   0.00000   0.00000   3.14159
   D13        3.14159   0.00000   0.00000   0.00000   0.00000   3.14159
   D14       -0.00000  -0.00000   0.00000   0.00000   0.00000   0.00000
   D15        0.00000  -0.00000   0.00000  -0.00000   0.00000   0.00000
   D16        3.14159   0.00000   0.00000   0.00000   0.00000   3.14159
   D17        3.14159   0.00000   0.00000  -0.00000   0.00000   3.14159
   D18       -0.00000   0.00000   0.00000   0.00000   0.00000   0.00000
   D19       -0.00000   0.00000   0.00000   0.00000   0.00000   0.00000
   D20        3.14159  -0.00000   0.00000  -0.00000   0.00000   3.14159
   D21        3.14159   0.00000   0.00000   0.00000   0.00000   3.14159
   D22        0.00000  -0.00000   0.00000  -0.00000   0.00000   0.00000
         Item               Value     Threshold  Converged?
 Maximum Force            0.019329     0.000450     NO 
 RMS     Force            0.005681     0.000300     NO 
 Maximum Displacement     0.053665     0.001800     NO 
 RMS     Displacement     0.016022     0.001200     NO 
 Predicted change in Energy=-1.653162D-03
 Lowest energy point so far.  Saving SCF results.
 GradGradGradGradGradGradGradGradGradGradGradGradGradGradGradGradGradGrad

 Leave Link  103 at Fri Sep  3 00:21:38 2021, MaxMem=  2415919104 cpu:         0.2
 (Enter /gpfs/share/home/1801110325/software/g09e01/l202.exe)
                          Input orientation:                          
 ---------------------------------------------------------------------
 Center     Atomic      Atomic             Coordinates (Angstroms)
 Number     Number       Type             X           Y           Z
 ---------------------------------------------------------------------
      1          8           0       -0.001244    2.227368   -0.000000
      2          7           0       -1.167447    0.293890   -0.000000
      3          6           0       -0.002484    0.889599   -0.000000
      4          6           0        1.218287    0.224548    0.000000
      5          6           0       -1.177355   -1.032807   -0.000000
      6          6           0        1.183806   -1.148757    0.000000
      7          6           0       -0.041328   -1.806548    0.000000
      8          1           0       -0.907260    2.514809   -0.000000
      9          1           0        2.133364    0.782063    0.000000
     10          1           0       -2.150499   -1.487023   -0.000000
     11          1           0        2.101102   -1.708001    0.000000
     12          1           0       -0.106162   -2.877241    0.000000
 ---------------------------------------------------------------------
                    Distance matrix (angstroms):
                    1          2          3          4          5
     1  O    0.000000
     2  N    2.257957   0.000000
     3  C    1.337770   1.308437   0.000000
     4  C    2.344898   2.386742   1.390171   0.000000
     5  C    3.465831   1.326734   2.252990   2.705558   0.000000
     6  C    3.578068   2.758554   2.358428   1.373738   2.364006
     7  C    4.034115   2.383271   2.696426   2.389975   1.374493
     8  H    0.950519   2.236108   1.860088   3.124619   3.557884
     9  H    2.577879   3.336715   2.138554   1.071535   3.775528
    10  H    4.291386   2.034217   3.203482   3.778650   1.073928
    11  H    4.461726   3.832882   3.342544   2.124643   3.347263
    12  H    5.105687   3.344009   3.768266   3.372723   2.132930
                    6          7          8          9         10
     6  C    0.000000
     7  C    1.390554   0.000000
     8  H    4.218326   4.407263   0.000000
     9  H    2.151680   3.380856   3.499686   0.000000
    10  H    3.351419   2.133237   4.190501   4.847704   0.000000
    11  H    1.074331   2.144695   5.184821   2.490273   4.257340
    12  H    2.156773   1.072654   5.451235   4.290219   2.472250
                   11         12
    11  H    0.000000
    12  H    2.497826   0.000000
 Stoichiometry    C5H5NO
 Framework group  CS[SG(C5H5NO)]
 Deg. of freedom    21
 Full point group                 CS      NOp   2
 RotChk:  IX=0 Diff= 8.28D-03
 Largest Abelian subgroup         CS      NOp   2
 Largest concise Abelian subgroup C1      NOp   1
                         Standard orientation:                         
 ---------------------------------------------------------------------
 Center     Atomic      Atomic             Coordinates (Angstroms)
 Number     Number       Type             X           Y           Z
 ---------------------------------------------------------------------
      1          8           0        0.004185    2.230225   -0.000000
      2          7           0       -1.166271    0.299318    0.000000
      3          6           0       -0.000000    0.892461    0.000000
      4          6           0        1.219305    0.224724   -0.000000
      5          6           0       -1.179100   -1.027354    0.000000
      6          6           0        1.181800   -1.148502   -0.000000
      7          6           0       -0.044779   -1.803593    0.000000
      8          1           0       -0.901195    2.519660    0.000000
      9          1           0        2.135607    0.780223   -0.000000
     10          1           0       -2.153242   -1.479425    0.000000
     11          1           0        2.097863   -1.709764   -0.000000
     12          1           0       -0.111970   -2.874141    0.000000
 ---------------------------------------------------------------------
 Rotational constants (GHZ):      5.9603697      2.8232734      1.9158057
 Leave Link  202 at Fri Sep  3 00:21:38 2021, MaxMem=  2415919104 cpu:         0.0
 (Enter /gpfs/share/home/1801110325/software/g09e01/l301.exe)
 Standard basis: GTBas1 (6D, 7F)
 Ernie: Thresh=  0.10000D-02 Tol=  0.10000D-05 Strict=F.
 There are    87 symmetry adapted cartesian basis functions of A'  symmetry.
 There are    28 symmetry adapted cartesian basis functions of A"  symmetry.
 There are    87 symmetry adapted basis functions of A'  symmetry.
 There are    28 symmetry adapted basis functions of A"  symmetry.
   115 basis functions,   216 primitive gaussians,   115 cartesian basis functions
    25 alpha electrons       25 beta electrons
       nuclear repulsion energy       278.4437395311 Hartrees.
 IExCor=    0 DFT=F Ex=HF Corr=None ExCW=0 ScaHFX=  1.000000
 ScaDFX=  1.000000  1.000000  1.000000  1.000000 ScalE2=  1.000000  1.000000
 IRadAn=      0 IRanWt=     -1 IRanGd=            0 ICorTp=0 IEmpDi=  4
 NAtoms=   12 NActive=   12 NUniq=   12 SFac= 1.00D+00 NAtFMM=   60 NAOKFM=F Big=F
 Integral buffers will be    131072 words long.
 Raffenetti 1 integral format.
 Two-electron integral symmetry is turned on.
 Leave Link  301 at Fri Sep  3 00:21:38 2021, MaxMem=  2415919104 cpu:         0.2
 (Enter /gpfs/share/home/1801110325/software/g09e01/l302.exe)
 NPDir=0 NMtPBC=     1 NCelOv=     1 NCel=       1 NClECP=     1 NCelD=      1
         NCelK=      1 NCelE2=     1 NClLst=     1 CellRange=     0.0.
 One-electron integrals computed using PRISM.
 NBasis=   115 RedAO= T EigKep=  1.09D-03  NBF=    87    28
 NBsUse=   115 1.00D-06 EigRej= -1.00D+00 NBFU=    87    28
 Leave Link  302 at Fri Sep  3 00:21:38 2021, MaxMem=  2415919104 cpu:         0.6
 (Enter /gpfs/share/home/1801110325/software/g09e01/l303.exe)
 DipDrv:  MaxL=1.
 Leave Link  303 at Fri Sep  3 00:21:38 2021, MaxMem=  2415919104 cpu:         0.1
 (Enter /gpfs/share/home/1801110325/software/g09e01/l401.exe)
 Initial guess from the checkpoint file:  "HY_G3.chk"
 B after Tr=    -0.000000   -0.000000    0.000000
         Rot=    0.999997   -0.000000    0.000000    0.002368 Ang=   0.27 deg.
 Guess basis will be translated and rotated to current coordinates.
 JPrj=2 DoOrth=T DoCkMO=T.
 Initial guess orbital symmetries:
       Occupied  (A') (A') (A') (A') (A') (A') (A') (A') (A') (A')
                 (A') (A') (A') (A') (A') (A') (A') (A") (A') (A')
                 (A') (A") (A') (A") (A")
       Virtual   (A') (A') (A') (A') (A') (A') (A') (A') (A') (A')
                 (A') (A') (A') (A') (A') (A') (A') (A') (A') (A')
                 (A') (A') (A') (A') (A') (A') (A') (A') (A') (A')
                 (A') (A') (A') (A') (A') (A') (A') (A') (A') (A')
                 (A') (A') (A') (A') (A') (A') (A') (A') (A') (A')
                 (A') (A') (A') (A') (A') (A') (A') (A') (A') (A')
                 (A') (A') (A') (A') (A') (A') (A") (A") (A") (A")
                 (A") (A") (A") (A") (A") (A") (A") (A") (A") (A")
                 (A") (A") (A") (A") (A") (A") (A") (A") (A") (A")
 The electronic state of the initial guess is 1-A'.
 Generating alternative initial guess.
 ExpMin= 1.61D-01 ExpMax= 5.48D+03 ExpMxC= 8.25D+02 IAcc=1 IRadAn=         1 AccDes= 0.00D+00
 Harris functional with IExCor=  205 and IRadAn=       1 diagonalized for initial guess.
 HarFok:  IExCor=  205 AccDes= 0.00D+00 IRadAn=         1 IDoV= 1 UseB2=F ITyADJ=14
 ICtDFT=  3500011 ScaDFX=  1.000000  1.000000  1.000000  1.000000
 FoFCou: FMM=F IPFlag=           0 FMFlag=      100000 FMFlg1=           0
         NFxFlg=           0 DoJE=T BraDBF=F KetDBF=T FulRan=T
         wScrn=  0.000000 ICntrl=     500 IOpCl=  0 I1Cent=   200000004 NGrid=           0
         NMat0=    1 NMatS0=      1 NMatT0=    0 NMatD0=    1 NMtDS0=    0 NMtDT0=    0
 Petite list used in FoFCou.
 Harris En= -321.906714762200    
 Leave Link  401 at Fri Sep  3 00:21:38 2021, MaxMem=  2415919104 cpu:         1.0
 (Enter /gpfs/share/home/1801110325/software/g09e01/l502.exe)
 Closed shell SCF:
 Using DIIS extrapolation, IDIIS=  1040.
 Integral symmetry usage will be decided dynamically.
 Keep R1 ints in memory in symmetry-blocked form, NReq=34256320.
 IVT=       59824 IEndB=       59824 NGot=  2415919104 MDV=  2403910685
 LenX=  2403910685 LenY=  2403897019
 Requested convergence on RMS density matrix=1.00D-08 within 128 cycles.
 Requested convergence on MAX density matrix=1.00D-06.
 Requested convergence on             energy=1.00D-06.
 No special actions if energy rises.
 FoFCou: FMM=F IPFlag=           0 FMFlag=           0 FMFlg1=           0
         NFxFlg=           0 DoJE=F BraDBF=F KetDBF=F FulRan=T
         wScrn=  0.000000 ICntrl=     600 IOpCl=  0 I1Cent=           0 NGrid=           0
         NMat0=    1 NMatS0=   6670 NMatT0=    0 NMatD0=    1 NMtDS0=    0 NMtDT0=    0
 Petite list used in FoFCou.

 Cycle   1  Pass 1  IDiag  1:
 E= -321.566393877191    
 DIIS: error= 1.54D-03 at cycle   1 NSaved=   1.
 NSaved= 1 IEnMin= 1 EnMin= -321.566393877191     IErMin= 1 ErrMin= 1.54D-03
 ErrMax= 1.54D-03  0.00D+00 EMaxC= 1.00D-01 BMatC= 5.29D-04 BMatP= 5.29D-04
 IDIUse=3 WtCom= 9.85D-01 WtEn= 1.54D-02
 Coeff-Com:  0.100D+01
 Coeff-En:   0.100D+01
 Coeff:      0.100D+01
 Gap=     1.129 Goal=   None    Shift=    0.000
 GapD=    1.129 DampG=2.000 DampE=1.000 DampFc=2.0000 IDamp=-1.
 RMSDP=2.51D-04 MaxDP=5.73D-03              OVMax= 3.93D-03

 Cycle   2  Pass 1  IDiag  1:
 E= -321.566965086329     Delta-E=       -0.000571209138 Rises=F Damp=F
 DIIS: error= 6.46D-04 at cycle   2 NSaved=   2.
 NSaved= 2 IEnMin= 2 EnMin= -321.566965086329     IErMin= 2 ErrMin= 6.46D-04
 ErrMax= 6.46D-04  0.00D+00 EMaxC= 1.00D-01 BMatC= 4.43D-05 BMatP= 5.29D-04
 IDIUse=3 WtCom= 9.94D-01 WtEn= 6.46D-03
 Coeff-Com:  0.410D-01 0.959D+00
 Coeff-En:   0.000D+00 0.100D+01
 Coeff:      0.407D-01 0.959D+00
 Gap=     0.451 Goal=   None    Shift=    0.000
 RMSDP=8.93D-05 MaxDP=1.99D-03 DE=-5.71D-04 OVMax= 1.82D-03

 Cycle   3  Pass 1  IDiag  1:
 E= -321.567012167114     Delta-E=       -0.000047080785 Rises=F Damp=F
 DIIS: error= 2.20D-04 at cycle   3 NSaved=   3.
 NSaved= 3 IEnMin= 3 EnMin= -321.567012167114     IErMin= 3 ErrMin= 2.20D-04
 ErrMax= 2.20D-04  0.00D+00 EMaxC= 1.00D-01 BMatC= 6.49D-06 BMatP= 4.43D-05
 IDIUse=3 WtCom= 9.98D-01 WtEn= 2.20D-03
 Coeff-Com: -0.694D-01 0.163D+00 0.907D+00
 Coeff-En:   0.000D+00 0.000D+00 0.100D+01
 Coeff:     -0.692D-01 0.162D+00 0.907D+00
 Gap=     0.451 Goal=   None    Shift=    0.000
 RMSDP=3.02D-05 MaxDP=8.24D-04 DE=-4.71D-05 OVMax= 7.13D-04

 Cycle   4  Pass 1  IDiag  1:
 E= -321.567020958019     Delta-E=       -0.000008790905 Rises=F Damp=F
 DIIS: error= 8.67D-05 at cycle   4 NSaved=   4.
 NSaved= 4 IEnMin= 4 EnMin= -321.567020958019     IErMin= 4 ErrMin= 8.67D-05
 ErrMax= 8.67D-05  0.00D+00 EMaxC= 1.00D-01 BMatC= 5.22D-07 BMatP= 6.49D-06
 IDIUse=1 WtCom= 1.00D+00 WtEn= 0.00D+00
 Coeff-Com: -0.619D-02-0.515D-01 0.603D-01 0.997D+00
 Coeff:     -0.619D-02-0.515D-01 0.603D-01 0.997D+00
 Gap=     0.451 Goal=   None    Shift=    0.000
 RMSDP=1.33D-05 MaxDP=2.89D-04 DE=-8.79D-06 OVMax= 5.49D-04

 Cycle   5  Pass 1  IDiag  1:
 E= -321.567022202460     Delta-E=       -0.000001244441 Rises=F Damp=F
 DIIS: error= 3.50D-05 at cycle   5 NSaved=   5.
 NSaved= 5 IEnMin= 5 EnMin= -321.567022202460     IErMin= 5 ErrMin= 3.50D-05
 ErrMax= 3.50D-05  0.00D+00 EMaxC= 1.00D-01 BMatC= 9.39D-08 BMatP= 5.22D-07
 IDIUse=1 WtCom= 1.00D+00 WtEn= 0.00D+00
 Coeff-Com:  0.782D-02-0.277D-01-0.110D+00 0.119D+00 0.101D+01
 Coeff:      0.782D-02-0.277D-01-0.110D+00 0.119D+00 0.101D+01
 Gap=     0.451 Goal=   None    Shift=    0.000
 RMSDP=6.51D-06 MaxDP=1.14D-04 DE=-1.24D-06 OVMax= 3.19D-04

 Cycle   6  Pass 1  IDiag  1:
 E= -321.567022519721     Delta-E=       -0.000000317261 Rises=F Damp=F
 DIIS: error= 1.88D-05 at cycle   6 NSaved=   6.
 NSaved= 6 IEnMin= 6 EnMin= -321.567022519721     IErMin= 6 ErrMin= 1.88D-05
 ErrMax= 1.88D-05  0.00D+00 EMaxC= 1.00D-01 BMatC= 1.44D-08 BMatP= 9.39D-08
 IDIUse=1 WtCom= 1.00D+00 WtEn= 0.00D+00
 Coeff-Com:  0.533D-03 0.871D-02-0.314D-02-0.152D+00-0.801D-01 0.123D+01
 Coeff:      0.533D-03 0.871D-02-0.314D-02-0.152D+00-0.801D-01 0.123D+01
 Gap=     0.451 Goal=   None    Shift=    0.000
 RMSDP=3.38D-06 MaxDP=4.59D-05 DE=-3.17D-07 OVMax= 2.23D-04

 Cycle   7  Pass 1  IDiag  1:
 E= -321.567022598073     Delta-E=       -0.000000078352 Rises=F Damp=F
 DIIS: error= 8.19D-06 at cycle   7 NSaved=   7.
 NSaved= 7 IEnMin= 7 EnMin= -321.567022598073     IErMin= 7 ErrMin= 8.19D-06
 ErrMax= 8.19D-06  0.00D+00 EMaxC= 1.00D-01 BMatC= 2.36D-09 BMatP= 1.44D-08
 IDIUse=1 WtCom= 1.00D+00 WtEn= 0.00D+00
 Coeff-Com: -0.103D-02 0.304D-02 0.135D-01-0.233D-02-0.115D+00-0.943D-01
 Coeff-Com:  0.120D+01
 Coeff:     -0.103D-02 0.304D-02 0.135D-01-0.233D-02-0.115D+00-0.943D-01
 Coeff:      0.120D+01
 Gap=     0.451 Goal=   None    Shift=    0.000
 RMSDP=1.34D-06 MaxDP=2.25D-05 DE=-7.84D-08 OVMax= 9.23D-05

 Cycle   8  Pass 1  IDiag  1:
 E= -321.567022611503     Delta-E=       -0.000000013431 Rises=F Damp=F
 DIIS: error= 3.82D-06 at cycle   8 NSaved=   8.
 NSaved= 8 IEnMin= 8 EnMin= -321.567022611503     IErMin= 8 ErrMin= 3.82D-06
 ErrMax= 3.82D-06  0.00D+00 EMaxC= 1.00D-01 BMatC= 7.48D-10 BMatP= 2.36D-09
 IDIUse=1 WtCom= 1.00D+00 WtEn= 0.00D+00
 Coeff-Com: -0.323D-03-0.121D-02 0.351D-02 0.348D-01-0.945D-02-0.335D+00
 Coeff-Com:  0.366D+00 0.942D+00
 Coeff:     -0.323D-03-0.121D-02 0.351D-02 0.348D-01-0.945D-02-0.335D+00
 Coeff:      0.366D+00 0.942D+00
 Gap=     0.451 Goal=   None    Shift=    0.000
 RMSDP=6.59D-07 MaxDP=9.57D-06 DE=-1.34D-08 OVMax= 4.54D-05

 Cycle   9  Pass 1  IDiag  1:
 E= -321.567022614258     Delta-E=       -0.000000002755 Rises=F Damp=F
 DIIS: error= 8.24D-07 at cycle   9 NSaved=   9.
 NSaved= 9 IEnMin= 9 EnMin= -321.567022614258     IErMin= 9 ErrMin= 8.24D-07
 ErrMax= 8.24D-07  0.00D+00 EMaxC= 1.00D-01 BMatC= 4.68D-11 BMatP= 7.48D-10
 IDIUse=1 WtCom= 1.00D+00 WtEn= 0.00D+00
 Coeff-Com:  0.178D-03-0.323D-03-0.232D-02-0.470D-02 0.215D-01 0.583D-01
 Coeff-Com: -0.228D+00-0.194D+00 0.135D+01
 Coeff:      0.178D-03-0.323D-03-0.232D-02-0.470D-02 0.215D-01 0.583D-01
 Coeff:     -0.228D+00-0.194D+00 0.135D+01
 Gap=     0.451 Goal=   None    Shift=    0.000
 RMSDP=2.38D-07 MaxDP=3.60D-06 DE=-2.75D-09 OVMax= 1.51D-05

 Cycle  10  Pass 1  IDiag  1:
 E= -321.567022614511     Delta-E=       -0.000000000253 Rises=F Damp=F
 DIIS: error= 1.55D-07 at cycle  10 NSaved=  10.
 NSaved=10 IEnMin=10 EnMin= -321.567022614511     IErMin=10 ErrMin= 1.55D-07
 ErrMax= 1.55D-07  0.00D+00 EMaxC= 1.00D-01 BMatC= 2.03D-12 BMatP= 4.68D-11
 IDIUse=1 WtCom= 1.00D+00 WtEn= 0.00D+00
 Coeff-Com:  0.315D-04 0.661D-05-0.340D-03-0.208D-02 0.306D-02 0.187D-01
 Coeff-Com: -0.368D-01-0.635D-01 0.134D+00 0.947D+00
 Coeff:      0.315D-04 0.661D-05-0.340D-03-0.208D-02 0.306D-02 0.187D-01
 Coeff:     -0.368D-01-0.635D-01 0.134D+00 0.947D+00
 Gap=     0.451 Goal=   None    Shift=    0.000
 RMSDP=2.49D-08 MaxDP=3.41D-07 DE=-2.53D-10 OVMax= 1.52D-06

 Cycle  11  Pass 1  IDiag  1:
 E= -321.567022614517     Delta-E=       -0.000000000006 Rises=F Damp=F
 DIIS: error= 4.69D-08 at cycle  11 NSaved=  11.
 NSaved=11 IEnMin=11 EnMin= -321.567022614517     IErMin=11 ErrMin= 4.69D-08
 ErrMax= 4.69D-08  0.00D+00 EMaxC= 1.00D-01 BMatC= 3.37D-13 BMatP= 2.03D-12
 IDIUse=1 WtCom= 1.00D+00 WtEn= 0.00D+00
 Coeff-Com: -0.140D-04 0.357D-04 0.214D-03 0.327D-04-0.158D-02-0.288D-02
 Coeff-Com:  0.195D-01 0.743D-02-0.116D+00 0.199D+00 0.894D+00
 Coeff:     -0.140D-04 0.357D-04 0.214D-03 0.327D-04-0.158D-02-0.288D-02
 Coeff:      0.195D-01 0.743D-02-0.116D+00 0.199D+00 0.894D+00
 Gap=     0.451 Goal=   None    Shift=    0.000
 RMSDP=8.51D-09 MaxDP=1.30D-07 DE=-5.68D-12 OVMax= 2.10D-07

 SCF Done:  E(RHF) =  -321.567022615     A.U. after   11 cycles
            NFock= 11  Conv=0.85D-08     -V/T= 2.0012
 KE= 3.211730559360D+02 PE=-1.309734945316D+03 EE= 3.885511272343D+02
 Leave Link  502 at Fri Sep  3 00:21:39 2021, MaxMem=  2415919104 cpu:         4.5
 (Enter /gpfs/share/home/1801110325/software/g09e01/l701.exe)
 Compute integral first derivatives.
 ... and contract with generalized density number  0.
 Leave Link  701 at Fri Sep  3 00:21:40 2021, MaxMem=  2415919104 cpu:         1.3
 (Enter /gpfs/share/home/1801110325/software/g09e01/l702.exe)
 L702 exits ... SP integral derivatives will be done elsewhere.
 Leave Link  702 at Fri Sep  3 00:21:40 2021, MaxMem=  2415919104 cpu:         0.1
 (Enter /gpfs/share/home/1801110325/software/g09e01/l703.exe)
 Compute integral first derivatives, UseDBF=F ICtDFT=           0.
 Integral derivatives from FoFJK, PRISM(SPDF).
 Calling FoFJK, ICntrl=      2127 FMM=F ISym2X=1 I1Cent= 0 IOpClX= 0 NMat=1 NMatS=1 NMatT=0.
 FoFJK:  IHMeth= 1 ICntrl=    2127 DoSepK=F KAlg= 0 I1Cent=   0 FoldK=F
 IRaf=         0 NMat=   1 IRICut=       1 DoRegI=T DoRafI=F ISym2E= 1.
 FoFCou: FMM=F IPFlag=           0 FMFlag=      100000 FMFlg1=         800
         NFxFlg=           0 DoJE=F BraDBF=F KetDBF=F FulRan=T
         wScrn=  0.000000 ICntrl=    2127 IOpCl=  0 I1Cent=           0 NGrid=           0
         NMat0=    1 NMatS0=      1 NMatT0=    0 NMatD0=    1 NMtDS0=    0 NMtDT0=    0
 Petite list used in FoFCou.
 Leave Link  703 at Fri Sep  3 00:21:40 2021, MaxMem=  2415919104 cpu:         2.8
 (Enter /gpfs/share/home/1801110325/software/g09e01/l716.exe)
 Dipole        = 1.65054270D-01-5.78206321D-01 1.03862591D-32
 ***** Axes restored to original set *****
 -------------------------------------------------------------------
 Center     Atomic                   Forces (Hartrees/Bohr)
 Number     Number              X              Y              Z
 -------------------------------------------------------------------
      1        8           0.000838990   -0.001183813    0.000000000
      2        7           0.001338049   -0.000653064    0.000000000
      3        6          -0.003900917    0.006327878   -0.000000000
      4        6           0.002575400   -0.001947061    0.000000000
      5        6          -0.001954553   -0.001057768   -0.000000000
      6        6           0.001969279    0.001082214    0.000000000
      7        6          -0.001360931   -0.001509423    0.000000000
      8        1           0.000218770    0.000527653   -0.000000000
      9        1           0.000586144    0.000513283    0.000000000
     10        1          -0.001047365   -0.001055569   -0.000000000
     11        1           0.000728967   -0.000489121    0.000000000
     12        1           0.000008168   -0.000555209    0.000000000
 -------------------------------------------------------------------
 Cartesian Forces:  Max     0.006327878 RMS     0.001566555
 Leave Link  716 at Fri Sep  3 00:21:40 2021, MaxMem=  2415919104 cpu:         0.1
 (Enter /gpfs/share/home/1801110325/software/g09e01/l103.exe)

 GradGradGradGradGradGradGradGradGradGradGradGradGradGradGradGradGradGrad
 Berny optimization.
 Using GEDIIS/GDIIS optimizer.
 FormGI is forming the generalized inverse of G from B-inverse, IUseBI=4.
 Internal  Forces:  Max     0.003940481 RMS     0.001102410
 Search for a local minimum.
 Step number   2 out of a maximum of   61
 All quantities printed in internal units (Hartrees-Bohrs-Radians)
 RMS Force = .11024D-02 SwitMx=.10000D-02 MixMth= 1
 Mixed Optimization -- RFO/linear search
 Update second derivatives using D2CorX and points    1    2
 DE= -1.53D-03 DEPred=-1.65D-03 R= 9.24D-01
 TightC=F SS=  1.41D+00  RLast= 8.45D-02 DXNew= 5.0454D-01 2.5350D-01
 Trust test= 9.24D-01 RLast= 8.45D-02 DXMaxT set to 3.00D-01
 ITU=  1  0
 Use linear search instead of GDIIS.
     Eigenvalues ---    0.02182   0.02204   0.02221   0.02248   0.02271
     Eigenvalues ---    0.02301   0.02307   0.02352   0.02507   0.15612
     Eigenvalues ---    0.16000   0.16000   0.16000   0.16023   0.22004
     Eigenvalues ---    0.22456   0.24404   0.24805   0.35539   0.35714
     Eigenvalues ---    0.35849   0.36410   0.42729   0.44610   0.46904
     Eigenvalues ---    0.48695   0.52755   0.53904   0.57857   0.63383
 RFO step:  Lambda=-1.28217480D-04 EMin= 2.18238099D-02
 Quartic linear search produced a step of -0.07493.
 Iteration  1 RMS(Cart)=  0.00542294 RMS(Int)=  0.00001901
 Iteration  2 RMS(Cart)=  0.00001866 RMS(Int)=  0.00000098
 Iteration  3 RMS(Cart)=  0.00000000 RMS(Int)=  0.00000098
 ITry= 1 IFail=0 DXMaxC= 2.46D-02 DCOld= 1.00D+10 DXMaxT= 3.00D-01 DXLimC= 3.00D+00 Rises=F
 ClnCor:  largest displacement from symmetrization is 1.33D-13 for atom    11.
 Variable       Old X    -DE/DX   Delta X   Delta X   Delta X     New X
                                 (Linear)    (Quad)   (Total)
    R1        2.52802  -0.00066   0.00229  -0.00470  -0.00240   2.52562
    R2        1.79622  -0.00005   0.00263  -0.00418  -0.00156   1.79466
    R3        2.47259   0.00171   0.00245  -0.00113   0.00132   2.47391
    R4        2.50716   0.00255   0.00180   0.00138   0.00318   2.51034
    R5        2.62704   0.00394   0.00108   0.00625   0.00732   2.63437
    R6        2.59599   0.00105   0.00130  -0.00011   0.00119   2.59717
    R7        2.02491   0.00077   0.00133  -0.00012   0.00121   2.02611
    R8        2.59742   0.00137   0.00152   0.00026   0.00178   2.59919
    R9        2.02943   0.00140   0.00148   0.00129   0.00278   2.03221
   R10        2.62777   0.00318   0.00074   0.00510   0.00583   2.63360
   R11        2.03019   0.00088   0.00124   0.00032   0.00156   2.03175
   R12        2.02702   0.00055   0.00124  -0.00053   0.00071   2.02773
    A1        1.87708   0.00102  -0.00212   0.00943   0.00731   1.88439
    A2        2.05095   0.00200   0.00001   0.00785   0.00786   2.05882
    A3        2.04441   0.00280  -0.00009   0.01040   0.01031   2.05472
    A4        2.06869  -0.00090   0.00032  -0.00393  -0.00361   2.06508
    A5        2.17008  -0.00190  -0.00024  -0.00646  -0.00670   2.16338
    A6        2.04452   0.00044   0.00021   0.00133   0.00154   2.04606
    A7        2.09557  -0.00035   0.00020  -0.00194  -0.00175   2.09382
    A8        2.14310  -0.00008  -0.00041   0.00062   0.00021   2.14331
    A9        2.16125  -0.00101  -0.00056  -0.00319  -0.00375   2.15751
   A10        2.01496   0.00103   0.00028   0.00461   0.00489   2.01985
   A11        2.10697  -0.00002   0.00028  -0.00142  -0.00114   2.10583
   A12        2.08864   0.00037  -0.00003   0.00125   0.00122   2.08986
   A13        2.09319  -0.00015  -0.00005  -0.00029  -0.00034   2.09285
   A14        2.10136  -0.00022   0.00008  -0.00096  -0.00088   2.10048
   A15        2.05093   0.00009   0.00060  -0.00077  -0.00018   2.05075
   A16        2.10824  -0.00001  -0.00025   0.00055   0.00030   2.10854
   A17        2.12402  -0.00009  -0.00035   0.00023  -0.00012   2.12389
    D1       -0.00000  -0.00000   0.00000  -0.00000   0.00000   0.00000
    D2        3.14159  -0.00000   0.00000  -0.00000   0.00000   3.14159
    D3        3.14159  -0.00000   0.00000  -0.00000   0.00000   3.14159
    D4       -0.00000  -0.00000   0.00000  -0.00000   0.00000   0.00000
    D5        0.00000  -0.00000   0.00000   0.00000   0.00000   0.00000
    D6        3.14159   0.00000   0.00000   0.00000   0.00000   3.14159
    D7        3.14159  -0.00000   0.00000   0.00000   0.00000   3.14159
    D8        0.00000  -0.00000   0.00000   0.00000   0.00000   0.00000
    D9        0.00000   0.00000   0.00000   0.00000   0.00000   0.00000
   D10        3.14159  -0.00000   0.00000  -0.00000   0.00000   3.14159
   D11        0.00000  -0.00000   0.00000  -0.00000  -0.00000   0.00000
   D12        3.14159  -0.00000   0.00000  -0.00000   0.00000   3.14159
   D13        3.14159  -0.00000   0.00000   0.00000   0.00000   3.14159
   D14        0.00000   0.00000   0.00000   0.00000   0.00000   0.00000
   D15       -0.00000   0.00000   0.00000   0.00000   0.00000   0.00000
   D16        3.14159  -0.00000   0.00000   0.00000   0.00000   3.14159
   D17        3.14159   0.00000   0.00000  -0.00000   0.00000   3.14159
   D18        0.00000  -0.00000   0.00000  -0.00000   0.00000   0.00000
   D19        0.00000   0.00000   0.00000  -0.00000   0.00000   0.00000
   D20        3.14159   0.00000   0.00000  -0.00000   0.00000   3.14159
   D21        3.14159  -0.00000   0.00000   0.00000   0.00000   3.14159
   D22       -0.00000   0.00000   0.00000  -0.00000   0.00000   0.00000
         Item               Value     Threshold  Converged?
 Maximum Force            0.003940     0.000450     NO 
 RMS     Force            0.001102     0.000300     NO 
 Maximum Displacement     0.024588     0.001800     NO 
 RMS     Displacement     0.005416     0.001200     NO 
 Predicted change in Energy=-7.435228D-05
 Lowest energy point so far.  Saving SCF results.
 GradGradGradGradGradGradGradGradGradGradGradGradGradGradGradGradGradGrad

 Leave Link  103 at Fri Sep  3 00:21:40 2021, MaxMem=  2415919104 cpu:         0.1
 (Enter /gpfs/share/home/1801110325/software/g09e01/l202.exe)
                          Input orientation:                          
 ---------------------------------------------------------------------
 Center     Atomic      Atomic             Coordinates (Angstroms)
 Number     Number       Type             X           Y           Z
 ---------------------------------------------------------------------
      1          8           0        0.001392    2.229972   -0.000000
      2          7           0       -1.167941    0.290689   -0.000000
      3          6           0       -0.005845    0.893492   -0.000000
      4          6           0        1.217747    0.225517    0.000000
      5          6           0       -1.180575   -1.037665   -0.000000
      6          6           0        1.184160   -1.148439    0.000000
      7          6           0       -0.042453   -1.809996    0.000000
      8          1           0       -0.900388    2.527821   -0.000000
      9          1           0        2.132881    0.784163    0.000000
     10          1           0       -2.153753   -1.495270   -0.000000
     11          1           0        2.102721   -1.707190    0.000000
     12          1           0       -0.105164   -2.881192    0.000000
 ---------------------------------------------------------------------
                    Distance matrix (angstroms):
                    1          2          3          4          5
     1  O    0.000000
     2  N    2.264544   0.000000
     3  C    1.336500   1.309137   0.000000
     4  C    2.344645   2.386578   1.394047   0.000000
     5  C    3.474838   1.328414   2.260389   2.710641   0.000000
     6  C    3.579469   2.757438   2.363386   1.374366   2.367328
     7  C    4.040206   2.383192   2.703736   2.394038   1.375433
     8  H    0.949696   2.253074   1.863126   3.128434   3.576478
     9  H    2.575580   3.337506   2.141519   1.072173   3.781276
    10  H    4.303729   2.039970   3.212429   3.785251   1.075397
    11  H    4.462827   3.832590   3.348074   2.125684   3.350865
    12  H    5.112275   3.345194   3.775991   3.376646   2.134268
                    6          7          8          9         10
     6  C    0.000000
     7  C    1.393642   0.000000
     8  H    4.226136   4.421845   0.000000
     9  H    2.152910   3.385519   3.498724   0.000000
    10  H    3.355884   2.134629   4.213809   4.855003   0.000000
    11  H    1.075155   2.147636   5.191722   2.491535   4.261747
    12  H    2.159813   1.073030   5.467157   4.294610   2.473358
                   11         12
    11  H    0.000000
    12  H    2.500608   0.000000
 Stoichiometry    C5H5NO
 Framework group  CS[SG(C5H5NO)]
 Deg. of freedom    21
 Full point group                 CS      NOp   2
 RotChk:  IX=0 Diff= 4.53D-03
 Largest Abelian subgroup         CS      NOp   2
 Largest concise Abelian subgroup C1      NOp   1
                         Standard orientation:                         
 ---------------------------------------------------------------------
 Center     Atomic      Atomic             Coordinates (Angstroms)
 Number     Number       Type             X           Y           Z
 ---------------------------------------------------------------------
      1          8           0        0.014460    2.233119    0.000000
      2          7           0       -1.165337    0.300183   -0.000000
      3          6           0       -0.000000    0.896698    0.000000
      4          6           0        1.219964    0.222119    0.000000
      5          6           0       -1.185149   -1.028083   -0.000000
      6          6           0        1.178952   -1.151634    0.000000
      7          6           0       -0.051218   -1.806554   -0.000000
      8          1           0       -0.885698    2.535837   -0.000000
      9          1           0        2.138104    0.775812    0.000000
     10          1           0       -2.160786   -1.480422   -0.000000
     11          1           0        2.094480   -1.715342    0.000000
     12          1           0       -0.119717   -2.877395   -0.000000
 ---------------------------------------------------------------------
 Rotational constants (GHZ):      5.9515097      2.8137252      1.9104922
 Leave Link  202 at Fri Sep  3 00:21:40 2021, MaxMem=  2415919104 cpu:         0.2
 (Enter /gpfs/share/home/1801110325/software/g09e01/l301.exe)
 Standard basis: GTBas1 (6D, 7F)
 Ernie: Thresh=  0.10000D-02 Tol=  0.10000D-05 Strict=F.
 There are    87 symmetry adapted cartesian basis functions of A'  symmetry.
 There are    28 symmetry adapted cartesian basis functions of A"  symmetry.
 There are    87 symmetry adapted basis functions of A'  symmetry.
 There are    28 symmetry adapted basis functions of A"  symmetry.
   115 basis functions,   216 primitive gaussians,   115 cartesian basis functions
    25 alpha electrons       25 beta electrons
       nuclear repulsion energy       278.1178839121 Hartrees.
 IExCor=    0 DFT=F Ex=HF Corr=None ExCW=0 ScaHFX=  1.000000
 ScaDFX=  1.000000  1.000000  1.000000  1.000000 ScalE2=  1.000000  1.000000
 IRadAn=      0 IRanWt=     -1 IRanGd=            0 ICorTp=0 IEmpDi=  4
 NAtoms=   12 NActive=   12 NUniq=   12 SFac= 1.00D+00 NAtFMM=   60 NAOKFM=F Big=F
 Integral buffers will be    131072 words long.
 Raffenetti 1 integral format.
 Two-electron integral symmetry is turned on.
 Leave Link  301 at Fri Sep  3 00:21:40 2021, MaxMem=  2415919104 cpu:         0.2
 (Enter /gpfs/share/home/1801110325/software/g09e01/l302.exe)
 NPDir=0 NMtPBC=     1 NCelOv=     1 NCel=       1 NClECP=     1 NCelD=      1
         NCelK=      1 NCelE2=     1 NClLst=     1 CellRange=     0.0.
 One-electron integrals computed using PRISM.
 NBasis=   115 RedAO= T EigKep=  1.10D-03  NBF=    87    28
 NBsUse=   115 1.00D-06 EigRej= -1.00D+00 NBFU=    87    28
 Leave Link  302 at Fri Sep  3 00:21:41 2021, MaxMem=  2415919104 cpu:         0.7
 (Enter /gpfs/share/home/1801110325/software/g09e01/l303.exe)
 DipDrv:  MaxL=1.
 Leave Link  303 at Fri Sep  3 00:21:41 2021, MaxMem=  2415919104 cpu:         0.1
 (Enter /gpfs/share/home/1801110325/software/g09e01/l401.exe)
 Initial guess from the checkpoint file:  "HY_G3.chk"
 B after Tr=     0.000000    0.000000   -0.000000
         Rot=    0.999999    0.000000    0.000000    0.001568 Ang=   0.18 deg.
 Guess basis will be translated and rotated to current coordinates.
 JPrj=2 DoOrth=T DoCkMO=T.
 Initial guess orbital symmetries:
       Occupied  (A') (A') (A') (A') (A') (A') (A') (A') (A') (A')
                 (A') (A') (A') (A') (A') (A') (A') (A") (A') (A')
                 (A') (A") (A') (A") (A")
       Virtual   (A') (A') (A') (A') (A') (A') (A') (A') (A') (A')
                 (A') (A') (A') (A') (A') (A') (A') (A') (A') (A')
                 (A') (A') (A') (A') (A') (A') (A') (A') (A') (A')
                 (A') (A') (A') (A') (A') (A') (A') (A') (A') (A')
                 (A') (A') (A') (A') (A') (A') (A') (A') (A') (A')
                 (A') (A') (A') (A') (A') (A') (A') (A') (A') (A')
                 (A') (A') (A') (A') (A') (A') (A") (A") (A") (A")
                 (A") (A") (A") (A") (A") (A") (A") (A") (A") (A")
                 (A") (A") (A") (A") (A") (A") (A") (A") (A") (A")
 The electronic state of the initial guess is 1-A'.
 Generating alternative initial guess.
 ExpMin= 1.61D-01 ExpMax= 5.48D+03 ExpMxC= 8.25D+02 IAcc=1 IRadAn=         1 AccDes= 0.00D+00
 Harris functional with IExCor=  205 and IRadAn=       1 diagonalized for initial guess.
 HarFok:  IExCor=  205 AccDes= 0.00D+00 IRadAn=         1 IDoV= 1 UseB2=F ITyADJ=14
 ICtDFT=  3500011 ScaDFX=  1.000000  1.000000  1.000000  1.000000
 FoFCou: FMM=F IPFlag=           0 FMFlag=      100000 FMFlg1=           0
         NFxFlg=           0 DoJE=T BraDBF=F KetDBF=T FulRan=T
         wScrn=  0.000000 ICntrl=     500 IOpCl=  0 I1Cent=   200000004 NGrid=           0
         NMat0=    1 NMatS0=      1 NMatT0=    0 NMatD0=    1 NMtDS0=    0 NMtDT0=    0
 Petite list used in FoFCou.
 Harris En= -321.906023926465    
 Leave Link  401 at Fri Sep  3 00:21:41 2021, MaxMem=  2415919104 cpu:         1.1
 (Enter /gpfs/share/home/1801110325/software/g09e01/l502.exe)
 Closed shell SCF:
 Using DIIS extrapolation, IDIIS=  1040.
 Integral symmetry usage will be decided dynamically.
 Keep R1 ints in memory in symmetry-blocked form, NReq=34256320.
 IVT=       59824 IEndB=       59824 NGot=  2415919104 MDV=  2403910685
 LenX=  2403910685 LenY=  2403897019
 Requested convergence on RMS density matrix=1.00D-08 within 128 cycles.
 Requested convergence on MAX density matrix=1.00D-06.
 Requested convergence on             energy=1.00D-06.
 No special actions if energy rises.
 FoFCou: FMM=F IPFlag=           0 FMFlag=           0 FMFlg1=           0
[...]
                 (A') (A") (A') (A') (A") (A') (A") (A') (A") (A')
                 (A") (A') (A") (A') (A') (A') (A') (A") (A') (A")
                 (A') (A') (A') (A") (A') (A") (A') (A') (A') (A')
                 (A') (A') (A") (A') (A") (A') (A') (A') (A') (A')
                 (A') (A") (A') (A') (A") (A') (A') (A') (A') (A')
                 (A') (A") (A') (A') (A') (A") (A") (A') (A") (A")
                 (A') (A') (A") (A") (A') (A") (A') (A") (A") (A')
                 (A") (A') (A') (A") (A') (A") (A') (A") (A') (A")
                 (A") (A') (A') (A") (A') (A') (A') (A") (A') (A")
                 (A') (A') (A") (A') (A") (A') (A') (A") (A') (A')
                 (A') (A') (A") (A') (A") (A") (A') (A') (A") (A')
                 (A") (A') (A') (A') (A") (A') (A') (A') (A') (A")
                 (A") (A') (A') (A') (A") (A') (A') (A") (A') (A")
                 (A') (A") (A') (A") (A') (A") (A') (A') (A') (A")
                 (A') (A') (A") (A') (A') (A") (A') (A") (A') (A")
                 (A') (A") (A") (A') (A') (A') (A') (A") (A') (A')
                 (A') (A') (A") (A') (A') (A') (A') (A') (A') (A')
                 (A") (A') (A") (A') (A') (A') (A') (A') (A') (A')
                 (A') (A") (A") (A") (A") (A") (A') (A') (A') (A')
                 (A') (A') (A') (A') (A') (A') (A') (A") (A') (A')
                 (A") (A") (A') (A') (A') (A") (A") (A') (A") (A')
                 (A") (A") (A") (A') (A') (A") (A') (A") (A") (A")
                 (A') (A') (A') (A') (A') (A') (A') (A') (A') (A')
                 (A") (A") (A') (A') (A') (A") (A') (A') (A')
 The electronic state is 1-A'.
 Alpha  occ. eigenvalues --  -20.59620 -15.56637 -11.34354 -11.28488 -11.26618
 Alpha  occ. eigenvalues --  -11.23934 -11.23582  -1.42117  -1.25317  -1.09444
 Alpha  occ. eigenvalues --   -1.02720  -0.87885  -0.85248  -0.74474  -0.70722
 Alpha  occ. eigenvalues --   -0.66640  -0.62247  -0.61111  -0.59710  -0.57308
 Alpha  occ. eigenvalues --   -0.53481  -0.51106  -0.43627  -0.39138  -0.33259
 Alpha virt. eigenvalues --    0.03886   0.04844   0.05247   0.06734   0.07464
 Alpha virt. eigenvalues --    0.08832   0.11260   0.11944   0.12163   0.13391
 Alpha virt. eigenvalues --    0.14192   0.14444   0.15286   0.16568   0.17523
 Alpha virt. eigenvalues --    0.17975   0.18588   0.19880   0.20031   0.20368
 Alpha virt. eigenvalues --    0.20578   0.20981   0.21381   0.22975   0.25119
 Alpha virt. eigenvalues --    0.26976   0.27927   0.30738   0.30871   0.32537
 Alpha virt. eigenvalues --    0.33195   0.34779   0.35719   0.36751   0.38130
 Alpha virt. eigenvalues --    0.38567   0.40124   0.40439   0.41619   0.42781
 Alpha virt. eigenvalues --    0.43860   0.46681   0.49049   0.52469   0.53513
 Alpha virt. eigenvalues --    0.55919   0.62731   0.62973   0.65722   0.68856
 Alpha virt. eigenvalues --    0.69321   0.69559   0.70187   0.71050   0.75161
 Alpha virt. eigenvalues --    0.75689   0.76206   0.77340   0.78886   0.79332
 Alpha virt. eigenvalues --    0.79802   0.80737   0.81234   0.85099   0.87099
 Alpha virt. eigenvalues --    0.88365   0.89415   0.89594   0.91146   0.92269
 Alpha virt. eigenvalues --    0.94284   0.94366   0.95154   0.96961   0.99834
 Alpha virt. eigenvalues --    1.02314   1.02480   1.03922   1.04927   1.06921
 Alpha virt. eigenvalues --    1.11167   1.11469   1.13803   1.16027   1.19896
 Alpha virt. eigenvalues --    1.20894   1.22718   1.26497   1.27457   1.28801
 Alpha virt. eigenvalues --    1.31862   1.33954   1.35135   1.35226   1.37551
 Alpha virt. eigenvalues --    1.44536   1.50167   1.50655   1.51277   1.53893
 Alpha virt. eigenvalues --    1.54778   1.55229   1.56454   1.59056   1.60660
 Alpha virt. eigenvalues --    1.62864   1.63226   1.66593   1.68409   1.69746
 Alpha virt. eigenvalues --    1.76264   1.79063   1.86084   1.90075   1.91618
 Alpha virt. eigenvalues --    1.91942   1.94602   1.98992   2.04648   2.11416
 Alpha virt. eigenvalues --    2.11797   2.20989   2.23406   2.25271   2.25460
 Alpha virt. eigenvalues --    2.33196   2.38010   2.44879   2.60228   2.69638
 Alpha virt. eigenvalues --    2.77889   2.82368   2.83475   2.90861   2.93180
 Alpha virt. eigenvalues --    2.93607   3.02048   3.03447   3.03591   3.05455
 Alpha virt. eigenvalues --    3.05550   3.07298   3.07454   3.11286   3.13819
 Alpha virt. eigenvalues --    3.15305   3.15899   3.18035   3.19105   3.19273
 Alpha virt. eigenvalues --    3.21579   3.26410   3.34406   3.35342   3.38964
 Alpha virt. eigenvalues --    3.41792   3.44646   3.45251   3.46277   3.50145
 Alpha virt. eigenvalues --    3.51135   3.51244   3.52342   3.54743   3.55633
 Alpha virt. eigenvalues --    3.59386   3.62413   3.65250   3.66043   3.66959
 Alpha virt. eigenvalues --    3.67297   3.71726   3.72679   3.73357   3.74869
 Alpha virt. eigenvalues --    3.78343   3.79473   3.81757   3.83746   3.85697
 Alpha virt. eigenvalues --    3.88273   3.95669   3.96429   3.98920   4.01482
 Alpha virt. eigenvalues --    4.03761   4.03860   4.09071   4.12204   4.15588
 Alpha virt. eigenvalues --    4.17990   4.18955   4.21136   4.25369   4.31136
 Alpha virt. eigenvalues --    4.32388   4.32900   4.36952   4.41100   4.42406
 Alpha virt. eigenvalues --    4.43585   4.45416   4.48124   4.54781   4.57147
 Alpha virt. eigenvalues --    4.63293   4.64521   4.69931   4.75362   4.77504
 Alpha virt. eigenvalues --    4.79541   4.83699   4.85652   4.88385   4.90782
 Alpha virt. eigenvalues --    4.93681   4.93923   5.00002   5.07693   5.08199
 Alpha virt. eigenvalues --    5.25361   5.32076   5.37340   5.42188   5.43426
 Alpha virt. eigenvalues --    5.47454   5.55285   5.55409   5.57269   5.63337
 Alpha virt. eigenvalues --    5.67794   5.68345   5.73341   5.80724   5.83724
 Alpha virt. eigenvalues --    5.85586   5.96435   5.98655   6.08843   6.13097
 Alpha virt. eigenvalues --    6.17050   6.20340   6.29458   6.34649   6.37469
 Alpha virt. eigenvalues --    6.48157   6.55190   6.87350   7.22432   7.26311
 Alpha virt. eigenvalues --    7.47802   7.67635   7.68712   7.89300   8.11257
 Alpha virt. eigenvalues --    8.25455  25.10865  25.47893  25.67939  25.87867
 Alpha virt. eigenvalues --   26.13057  28.31487  28.38555  28.42588  28.51107
 Alpha virt. eigenvalues --   28.67765  29.04028  29.13687  29.16293  29.31009
 Alpha virt. eigenvalues --   29.32242  29.37446  29.56491  29.57774  29.63550
 Alpha virt. eigenvalues --   29.93840  37.44837  38.81046  39.26247  39.84851
 Alpha virt. eigenvalues --   41.69409  41.71427  41.73781  41.87000  41.88297
 Alpha virt. eigenvalues --   42.05059  42.07662  42.08514  42.10432  42.11757
 Alpha virt. eigenvalues --   42.11914  42.12533  42.13619  42.14484  42.15421
 Alpha virt. eigenvalues --   42.17657  42.18150  42.18657  42.19107  42.20524
 Alpha virt. eigenvalues --   42.25022  42.26944  42.30350  42.31802  42.36148
 Alpha virt. eigenvalues --   42.39601  42.41630  42.43654  42.48134  42.54914
 Alpha virt. eigenvalues --   44.90536  44.95242  45.02230  45.06906  45.13949
 Alpha virt. eigenvalues --   47.13720  47.58492  48.01370  51.77433
          Condensed to atoms (all electrons):
               1          2          3          4          5          6
     1  O    8.008399  -0.037036   0.335217  -0.133297  -0.035426  -0.048288
     2  N   -0.037036   6.988808   0.172513   0.195371   0.313342  -0.215646
     3  C    0.335217   0.172513   5.466154  -0.444317   0.162292   0.594297
     4  C   -0.133297   0.195371  -0.444317   6.342852  -0.594885  -0.614660
     5  C   -0.035426   0.313342   0.162292  -0.594885   5.305988   0.545871
     6  C   -0.048288  -0.215646   0.594297  -0.614660   0.545871   5.953827
     7  C    0.042826   0.113240  -0.339327   0.556402  -0.017862  -0.323134
     8  H    0.275453   0.032120  -0.019741  -0.033429   0.009791  -0.003882
     9  H   -0.007977   0.007988  -0.041515   0.465440  -0.031233  -0.093452
    10  H   -0.002440  -0.075813   0.022260  -0.021790   0.438102   0.034753
    11  H   -0.001353  -0.002893   0.001463   0.005898   0.010106   0.358439
    12  H    0.000974   0.012096  -0.024445   0.066724  -0.044322  -0.082693
               7          8          9         10         11         12
     1  O    0.042826   0.275453  -0.007977  -0.002440  -0.001353   0.000974
     2  N    0.113240   0.032120   0.007988  -0.075813  -0.002893   0.012096
     3  C   -0.339327  -0.019741  -0.041515   0.022260   0.001463  -0.024445
     4  C    0.556402  -0.033429   0.465440  -0.021790   0.005898   0.066724
     5  C   -0.017862   0.009791  -0.031233   0.438102   0.010106  -0.044322
     6  C   -0.323134  -0.003882  -0.093452   0.034753   0.358439  -0.082693
     7  C    5.835505  -0.004663   0.046685  -0.051282  -0.013684   0.443357
     8  H   -0.004663   0.428166   0.000863  -0.000270   0.000360  -0.000062
     9  H    0.046685   0.000863   0.465757  -0.000365  -0.004031   0.003476
    10  H   -0.051282  -0.000270  -0.000365   0.474884   0.002181  -0.006304
    11  H   -0.013684   0.000360  -0.004031   0.002181   0.458799  -0.005689
    12  H    0.443357  -0.000062   0.003476  -0.006304  -0.005689   0.485471
 Mulliken charges:
               1
     1  O   -0.397054
     2  N   -0.504089
     3  C    0.115148
     4  C    0.209691
     5  C   -0.061763
     6  C   -0.105433
     7  C   -0.288060
     8  H    0.315295
     9  H    0.188362
    10  H    0.186084
    11  H    0.190402
    12  H    0.151417
 Sum of Mulliken charges =  -0.00000
 Mulliken charges with hydrogens summed into heavy atoms:
               1
     1  O   -0.081759
     2  N   -0.504089
     3  C    0.115148
     4  C    0.398053
     5  C    0.124321
     6  C    0.084969
     7  C   -0.136644
 Electronic spatial extent (au):  <R**2>=            633.3756
 Charge=             -0.0000 electrons
 Dipole moment (field-independent basis, Debye):
    X=              0.5199    Y=             -1.5448    Z=             -0.0000  Tot=              1.6300
 Quadrupole moment (field-independent basis, Debye-Ang):
   XX=            -37.4382   YY=            -37.2789   ZZ=            -44.1298
   XY=             -2.2092   XZ=              0.0000   YZ=             -0.0000
 Traceless Quadrupole moment (field-independent basis, Debye-Ang):
   XX=              2.1775   YY=              2.3367   ZZ=             -4.5142
   XY=             -2.2092   XZ=              0.0000   YZ=             -0.0000
 Octapole moment (field-independent basis, Debye-Ang**2):
  XXX=              6.3580  YYY=              3.1057  ZZZ=             -0.0000  XYY=            -11.3145
  XXY=             -0.3569  XXZ=             -0.0000  XZZ=             -1.4579  YZZ=              6.0279
  YYZ=             -0.0000  XYZ=              0.0000
 Hexadecapole moment (field-independent basis, Debye-Ang**3):
 XXXX=           -265.8949 YYYY=           -466.6424 ZZZZ=            -49.4625 XXXY=              9.0912
 XXXZ=             -0.0000 YYYX=            -31.9565 YYYZ=              0.0000 ZZZX=             -0.0000
 ZZZY=              0.0000 XXYY=           -107.3716 XXZZ=            -61.0821 YYZZ=            -99.8893
 XXYZ=              0.0000 YYXZ=              0.0000 ZZXY=              0.6588
 N-N= 2.751623329708D+02 E-N=-1.303275954015D+03  KE= 3.211790105249D+02
 Symmetry A'   KE= 3.100804308239D+02
 Symmetry A"   KE= 1.109857970105D+01
 Leave Link  601 at Fri Sep  3 00:41:52 2021, MaxMem=  2415919104 cpu:         1.1
 (Enter /gpfs/share/home/1801110325/software/g09e01/l9999.exe)
 1\1\GINC-A5U23N11\SP\RMP2-Full\GTlarge\C5H5N1O1\1801110325\03-Sep-2021
 \0\\#P Geom=AllCheck Guess=TCheck SCRF=Check MP2=Full/GTLarge\\HY_G3\\
 0,1\O,0,0.0147090201,2.2633791284,0.\N,0,-1.1862056633,0.3037280811,0.
 \C,0,0.0018405887,0.9037800121,0.\C,0,1.2272648612,0.2279543123,0.\C,0
 ,-1.1953353259,-1.04374238,0.\C,0,1.1942192644,-1.1579552806,0.\C,0,-0
 .0405931709,-1.8142407156,0.\H,0,-0.9268502102,2.5276949119,0.\H,0,2.1
 551245166,0.7898256187,0.\H,0,-2.179863063,-1.5064228733,0.\H,0,2.1217
 249043,-1.7245029518,0.\H,0,-0.103254722,-2.897597863,0.\\Version=EM64
 L-G09RevE.01\State=1-A'\HF=-321.6739986\MP2=-323.1884097\RMSD=7.521e-0
 9\PG=CS [SG(C5H5N1O1)]\\@


 SI MONUMENTUM REQUIRIS, CIRCUMSPICE
     -- FROM SIR CHRISTOPHER WREN'S TOMBSTONE
 Diagonal vibrational polarizability:
        0.0000000       0.0000000       0.0000000

 Temperature=              298.150000 Pressure=                      1.000000
 E(ZPE)=                     0.089930 E(Thermal)=                    0.095278
 E(QCISD(T))=             -322.603198 E(Empiric)=                   -0.114948
 DE(Plus)=                  -0.023348 DE(2DF)=                      -0.238354
 E(Delta-G3)=               -0.409050 E(G3-Empiric)=                -0.114948
 G3(0 K)=                 -323.298968 G3 Energy=                  -323.293620
 G3 Enthalpy=             -323.292676 G3 Free Energy=             -323.327797
 1\1\GINC-A5U23N11\Mixed\G3\G3\C5H5N1O1\1801110325\03-Sep-2021\0\\#P Ge
 om=AllCheck Guess=TCheck SCRF=Check MP2=Full/GTLarge\\HY_G3\\0,1\O,0,0
 .0147090201,2.2633791284,0.\N,0,-1.1862056633,0.3037280811,0.\C,0,0.00
 18405887,0.9037800121,0.\C,0,1.2272648612,0.2279543123,0.\C,0,-1.19533
 53259,-1.04374238,0.\C,0,1.1942192644,-1.1579552806,0.\C,0,-0.04059317
 09,-1.8142407156,0.\H,0,-0.9268502102,2.5276949119,0.\H,0,2.1551245166
 ,0.7898256187,0.\H,0,-2.179863063,-1.5064228733,0.\H,0,2.1217249043,-1
 .7245029518,0.\H,0,-0.103254722,-2.897597863,0.\\Version=EM64L-G09RevE
 .01\State=1-A'\MP2/G3Bas1=-322.5302769\QCISD(T)/G3Bas1=-322.6031983\MP
 4/GTBas1=-322.6058847\MP2/GTBas2=-322.5528291\MP4/GTBas2=-322.6292329\
 MP2/GTBas3=-322.7568077\MP4/GTBas3=-322.8442383\MP2/GTLarge=-323.18840
 97\G3=-323.2989679\FreqCoord=0.0025387081,4.2121213615,0.,-2.207877842
 8,0.5516549872,0.,-0.0135463464,1.6883502191,0.,2.3023423814,0.4243728
 248,0.,-2.2305486085,-1.9608172889,0.,2.2392240078,-2.1692483732,0.,-0
 .0813210266,-3.4196691161,0.,-1.7029006886,4.7762897719,0.,4.031965997
 5,1.4813654912,0.,-4.0706458506,-2.8242234326,0.,3.9748656226,-3.22667
 10115,0.,-0.197936802,-5.4447777498,0.\PG=CS [SG(C5H5N1O1)]\NImag=0\\0
 .68417427,-0.13133755,0.58266615,0.,0.,0.04245584,-0.00718083,-0.03529
 906,0.,0.57739351,-0.08067217,-0.05744279,0.,0.13366367,0.72346319,0.,
 0.,0.00820799,0.,0.,0.10824094,-0.13372855,-0.02536446,0.,-0.37057185,
 -0.03223348,0.,0.82247777,0.04042051,-0.37875067,0.,-0.11582552,-0.217
 71438,0.,-0.00000618,0.87665372,0.,0.,-0.06376089,0.,0.,-0.08696405,0.
 ,0.,0.22566841,0.00160864,0.01814718,0.,-0.07762299,-0.05651515,0.,-0.
 29579173,0.11051867,0.,0.81327193,0.06133086,-0.04944998,0.,0.03846306
 ,0.10441232,0.,-0.00363876,-0.18029301,0.,0.07491956,0.82844039,0.,0.,
 0.01147016,0.,0.,0.02415339,0.,0.,-0.09026913,0.,0.,0.14585430,-0.0089
 3146,0.00599390,0.,-0.15657618,-0.02755816,0.,0.04961559,-0.05856681,0
 .,-0.03137687,0.04297344,0.,0.87371558,0.01423769,0.00184286,0.,0.0402
 1907,-0.38653126,0.,-0.16641573,-0.04739683,0.,0.06148010,-0.09421581,
 0.,0.03865387,0.77907755,0.,0.,0.01267314,0.,0.,-0.07764073,0.,0.,-0.0
 0448631,0.,0.,-0.00599623,0.,0.,0.19616316,-0.01539088,0.00459147,0.,-
 0.03706190,-0.06500615,0.,0.08484454,0.03672410,0.,-0.17232812,0.04112
 738,0.,-0.07402067,0.05540205,0.,0.81110150,-0.00983965,0.01391959,0.,
 -0.05694395,-0.09427513,0.,0.13160988,-0.03622990,0.,-0.05830831,-0.41
 654362,0.,-0.03384504,0.11610996,0.,-0.05505788,0.80497495,0.,0.,0.005
 67781,0.,0.,-0.00789942,0.,0.,0.00149456,0.,0.,-0.07108553,0.,0.,0.007
 49769,0.,0.,0.17917792,0.01353225,-0.00943832,0.,0.07595223,0.12870318
 ,0.,-0.14126371,0.00304669,0.,0.06298927,-0.11084145,0.,-0.32683631,0.
 03881597,0.,-0.30846846,-0.02753555,0.,0.73356983,-0.00279388,-0.01012
 933,0.,0.02109723,-0.05419335,0.,0.02007873,0.00699817,0.,-0.03718029,
 -0.01858448,0.,0.15023229,-0.23310792,0.,-0.12937162,-0.20936435,0.,-0
 .00879234,0.87616738,0.,0.,-0.00117997,0.,0.,0.02436484,0.,0.,-0.00897
 618,0.,0.,0.00842917,0.,0.,-0.08114881,0.,0.,-0.07597427,0.,0.,0.14601
 525,-0.53714254,0.17266999,0.,-0.00114262,-0.00398144,0.,0.00113122,0.
 00681786,0.,0.00308288,-0.00341561,0.,0.00008796,-0.00161584,0.,0.0005
 5232,0.00166083,0.,-0.00154554,-0.00070072,0.,0.53497678,0.10887023,-0
 .10105868,0.,0.00240726,0.00952732,0.,0.06199869,-0.02765454,0.,-0.002
 62454,-0.00819170,0.,-0.00036757,-0.00327783,0.,0.00317124,0.00100461,
 0.,-0.00213128,0.00132176,0.,-0.17108330,0.12799389,0.,0.,-0.01116613,
 0.,0.,-0.00353549,0.,0.,0.00160863,0.,0.,0.00312959,0.,0.,-0.00083086,
 0.,0.,0.00154176,0.,0.,0.00062574,0.,0.,0.00994948,0.00226926,0.000080
 59,0.,-0.00652970,0.00340427,0.,-0.01865474,-0.02288813,0.,-0.30516206
 ,-0.13767584,0.,0.00059935,0.00242534,0.,0.00750744,0.00222509,0.,0.00
 201577,0.00104544,0.,0.00004198,-0.00000396,0.,0.31688084,-0.00077862,
 0.00123990,0.,0.00610822,-0.00035352,0.,0.01526601,0.01469039,0.,-0.14
 065911,-0.15605951,0.,0.00052114,-0.00189281,0.,-0.03286339,-0.0099561
 1,0.,0.00165400,-0.00604060,0.,-0.00019633,0.00017664,0.,0.15202142,0.
 15724839,0.,0.,-0.00245065,0.,0.,0.00672267,0.,0.,0.00198886,0.,0.,-0.
 04030862,0.,0.,-0.00012375,0.,0.,0.00285212,0.,0.,0.00979138,0.,0.,-0.
 00063158,0.,0.,0.02892648,-0.00009574,-0.00064781,0.,0.00772444,-0.004
 16402,0.,0.00307123,0.00212195,0.,0.00055443,0.00070682,0.,-0.33234140
 ,-0.11057359,0.,-0.00388911,0.00468774,0.,-0.01834431,-0.01601561,0.,-
 0.00003863,0.00018325,0.,-0.00003853,-0.00005123,0.,0.34384625,-0.0014
 8916,-0.00155763,0.,-0.03724001,-0.02510281,0.,-0.00002365,-0.00536292
 ,0.,-0.00013532,-0.00048828,0.,-0.10684725,-0.11624070,0.,0.00396139,-
 0.00234198,0.,0.01795169,0.01495816,0.,-0.00013470,0.00042275,0.,-0.00
 017557,0.00015155,0.,0.12392053,0.13425917,0.,0.,0.00010512,0.,0.,-0.0
 0244934,0.,0.,0.01154254,0.,0.,-0.00035596,0.,0.,-0.05440289,0.,0.,0.0
 0932031,0.,0.,0.00969729,0.,0.,-0.00022229,0.,0.,-0.00165625,0.,0.,0.0
 3370184,0.00010409,0.00042786,0.,0.00046250,-0.00055988,0.,0.00186592,
 -0.00194539,0.,0.00668958,-0.00196130,0.,-0.00478441,-0.00461481,0.,-0
 .29847317,0.13564859,0.,-0.01800176,0.02016578,0.,0.00006650,-0.000151
 08,0.,0.00080872,0.00057967,0.,-0.00115969,0.00102354,0.,0.31123390,0.
 00218718,-0.00094874,0.,-0.00045086,-0.00072566,0.,-0.00171566,-0.0063
 8960,0.,0.03314818,-0.00980951,0.,-0.00449642,-0.00117979,0.,0.1347853
 7,-0.15804268,0.,-0.01477571,0.01614765,0.,-0.00005431,-0.00047028,0.,
 -0.00066546,0.00130648,0.,-0.00086658,0.00060404,0.,-0.14806111,0.1587
 0924,0.,0.,-0.00067122,0.,0.,-0.00314778,0.,0.,0.01176549,0.,0.,0.0076
 9258,0.,0.,0.00853973,0.,0.,-0.05413553,0.,0.,0.00724104,0.,0.,-0.0004
 3294,0.,0.,-0.00565281,0.,0.,-0.00082544,0.,0.,0.03378007,0.00078149,0
 .00017621,0.,-0.00484661,0.00491934,0.,-0.00299570,-0.00041773,0.,-0.0
 0591497,-0.00198814,0.,0.01084883,0.03198590,0.,0.00562651,-0.03430176
 ,0.,-0.07359926,-0.01776502,0.,-0.00007032,-0.00026893,0.,0.00026168,-
 0.00160177,0.,0.00071107,-0.00081149,0.,0.00118783,0.00096539,0.,0.068
 00944,-0.00013544,-0.00033065,0.,0.00380089,-0.00106393,0.,0.00044461,
 0.00144955,0.,-0.00279098,0.00078318,0.,-0.00669338,-0.01318743,0.,0.0
 0253606,-0.00925533,0.,-0.01665688,-0.38417309,0.,0.00003359,0.0002060
 6,0.,0.00020681,-0.00051079,0.,0.00069857,0.00069866,0.,-0.00055186,0.
 00079885,0.,0.01910801,0.40458493,0.,0.,-0.00136121,0.,0.,0.00994699,0
 .,0.,0.00038807,0.,0.,0.00728627,0.,0.,-0.00024414,0.,0.,0.00153257,0.
 ,0.,-0.03888548,0.,0.,-0.00003591,0.,0.,0.00054215,0.,0.,-0.00445494,0
 .,0.,-0.00415319,0.,0.,0.02943881\\0.00010671,-0.00023972,0.,-0.000047
 43,-0.00024819,0.,0.00002380,0.00036165,0.,-0.00002486,0.00001119,0.,-
 0.00009112,0.00029691,0.,-0.00010457,-0.00006239,0.,0.00015745,-0.0000
 4143,0.,-0.00008249,0.00001175,0.,0.00005773,0.00001016,0.,-0.00002474
 ,-0.00005429,0.,0.00003975,-0.00000284,0.,-0.00001022,-0.00004280,0.\\
 \@
 Job cpu time:       0 days  0 hours 15 minutes 11.7 seconds.
 File lengths (MBytes):  RWF=   5440 Int=      0 D2E=      0 Chk=     32 Scr=     32
 Normal termination of Gaussian 09 at Fri Sep  3 00:41:52 2021.
