 Entering Gaussian System, Link 0=g09
 AtFile(1): pc-2.gbs
            -H     0
            S    4   1.00
                  0.754230D+02           0.240650D-02
                  0.113500D+02           0.184870D-01
                  0.259930D+01           0.897420D-01
                  0.735130D+00           0.281110D+00
            S    1   1.00
                  0.231670D+00           0.100000D+01
            S    1   1.00
                  0.741470D-01           0.100000D+01
            P    1   1.00
                  0.160000D+01           0.100000D+01
            P    1   1.00
                  0.450000D+00           0.100000D+01
            D    1   1.00
                  0.125000D+01           0.100000D+01
            ****
            -C     0
            S    7   1.00
                  0.785710D+04           0.568250D-03
                  0.117870D+04           0.439150D-02
                  0.268320D+03           0.225040D-01
                  0.759480D+02           0.866530D-01
                  0.245590D+02           0.244050D+00
                  0.862120D+01           0.441480D+00
                  0.312780D+01           0.353320D+00
            S    7   1.00
                  0.117870D+04          -0.594920D-06
                  0.268320D+03          -0.627480D-04
                  0.759480D+02          -0.757730D-03
                  0.245590D+02          -0.733080D-02
                  0.862120D+01          -0.389320D-01
                  0.312780D+01          -0.889080D-01
                  0.822020D+00           0.216890D+00
            S    1   1.00
                  0.330170D+00           0.100000D+01
            S    1   1.00
                  0.114630D+00           0.100000D+01
            P    4   1.00
                  0.337750D+02           0.602940D-02
                  0.767660D+01           0.432280D-01
                  0.223570D+01           0.163010D+00
                  0.764470D+00           0.365040D+00
            P    1   1.00
                  0.262320D+00           0.100000D+01
            P    1   1.00
                  0.846380D-01           0.100000D+01
            D    1   1.00
                  0.140000D+01           0.100000D+01
            D    1   1.00
                  0.450000D+00           0.100000D+01
            F    1   1.00
                  0.950000D+00           0.100000D+01
            ****
            -N     0
            S    7   1.00
                  0.111010D+05           0.545700D-03
                  0.166530D+04           0.421810D-02
                  0.379080D+03           0.216450D-01
                  0.107300D+03           0.837760D-01
                  0.347470D+02           0.238810D+00
                  0.122490D+02           0.439940D+00
                  0.447430D+01           0.363640D+00
            S    7   1.00
                  0.166530D+04          -0.150060D-05
                  0.379080D+03          -0.587530D-04
                  0.107300D+03          -0.774530D-03
                  0.347470D+02          -0.721610D-02
                  0.122490D+02          -0.393380D-01
                  0.447430D+01          -0.906110D-01
                  0.124040D+01           0.198820D+00
            S    1   1.00
                  0.487430D+00           0.100000D+01
            S    1   1.00
                  0.164840D+00           0.100000D+01
            P    4   1.00
                  0.479340D+02           0.617060D-02
                  0.109990D+02           0.442600D-01
                  0.324720D+01           0.168250D+00
                  0.111140D+01           0.368480D+00
            P    1   1.00
                  0.379880D+00           0.100000D+01
            P    1   1.00
                  0.120680D+00           0.100000D+01
            D    1   1.00
                  0.180000D+01           0.100000D+01
            D    1   1.00
                  0.550000D+00           0.100000D+01
            F    1   1.00
                  0.102000D+01           0.100000D+01
            ****
            -O     0
            S    7   1.00
                  0.147820D+05           0.535190D-03
                  0.221730D+04           0.413750D-02
                  0.504740D+03           0.212450D-01
                  0.142870D+03           0.824530D-01
                  0.463000D+02           0.236710D+00
                  0.163370D+02           0.440390D+00
                  0.598280D+01           0.364650D+00
            S    7   1.00
                  0.221730D+04          -0.192750D-05
                  0.504740D+03          -0.579640D-04
                  0.142870D+03          -0.794940D-03
                  0.463000D+02          -0.731250D-02
                  0.163370D+02          -0.405740D-01
                  0.598280D+01          -0.915940D-01
                  0.167180D+01           0.209400D+00
            S    1   1.00
                  0.646620D+00           0.100000D+01
            S    1   1.00
                  0.216690D+00           0.100000D+01
            P    4   1.00
                  0.604240D+02           0.689490D-02
                  0.139350D+02           0.490050D-01
                  0.415310D+01           0.182550D+00
                  0.141580D+01           0.376330D+00
            P    1   1.00
                  0.475490D+00           0.100000D+01
            P    1   1.00
                  0.145290D+00           0.100000D+01
            D    1   1.00
                  0.220000D+01           0.100000D+01
            D    1   1.00
                  0.650000D+00           0.100000D+01
            F    1   1.00
                  0.110000D+01           0.100000D+01
            ****
 Initial command:
 /public3/home/sc51754/softwares/g09e01/l1.exe "./Gau-35404.inp" -scrdir="./"
 Entering Link 1 = /public3/home/sc51754/softwares/g09e01/l1.exe PID=     35407.
  
 Copyright (c) 1988,1990,1992,1993,1995,1998,2003,2009,2015,
            Gaussian, Inc.  All Rights Reserved.
  
 This is part of the Gaussian(R) 09 program.  It is based on
 the Gaussian(R) 03 system (copyright 2003, Gaussian, Inc.),
 the Gaussian(R) 98 system (copyright 1998, Gaussian, Inc.),
 the Gaussian(R) 94 system (copyright 1995, Gaussian, Inc.),
 the Gaussian 92(TM) system (copyright 1992, Gaussian, Inc.),
 the Gaussian 90(TM) system (copyright 1990, Gaussian, Inc.),
 the Gaussian 88(TM) system (copyright 1988, Gaussian, Inc.),
 the Gaussian 86(TM) system (copyright 1986, Carnegie Mellon
 University), and the Gaussian 82(TM) system (copyright 1983,
 Carnegie Mellon University). Gaussian is a federally registered
 trademark of Gaussian, Inc.
  
 This software contains proprietary and confidential information,
 including trade secrets, belonging to Gaussian, Inc.
  
 This software is provided under written license and may be
 used, copied, transmitted, or stored only in accord with that
 written license.
  
 The following legend is applicable only to US Government
 contracts under FAR:
  
                    RESTRICTED RIGHTS LEGEND
  
 Use, reproduction and disclosure by the US Government is
 subject to restrictions as set forth in subparagraphs (a)
 and (c) of the Commercial Computer Software - Restricted
 Rights clause in FAR 52.227-19.
  
 Gaussian, Inc.
 340 Quinnipiac St., Bldg. 40, Wallingford CT 06492
  
  
 ---------------------------------------------------------------
 Warning -- This program may not be used in any manner that
 competes with the business of Gaussian, Inc. or will provide
 assistance to any competitor of Gaussian, Inc.  The licensee
 of this program is prohibited from giving any competitor of
 Gaussian, Inc. access to this program.  By using this program,
 the user acknowledges that Gaussian, Inc. is engaged in the
 business of creating and licensing software in the field of
 computational chemistry and represents and warrants to the
 licensee that it is not a competitor of Gaussian, Inc. and that
 it will not use this program in any manner prohibited above.
 ---------------------------------------------------------------
  

 Cite this work as:
 Gaussian 09, Revision E.01,
 M. J. Frisch, G. W. Trucks, H. B. Schlegel, G. E. Scuseria, 
 M. A. Robb, J. R. Cheeseman, G. Scalmani, V. Barone, B. Mennucci, 
 G. A. Petersson, H. Nakatsuji, M. Caricato, X. Li, H. P. Hratchian, 
 A. F. Izmaylov, J. Bloino, G. Zheng, J. L. Sonnenberg, M. Hada, 
 M. Ehara, K. Toyota, R. Fukuda, J. Hasegawa, M. Ishida, T. Nakajima, 
 Y. Honda, O. Kitao, H. Nakai, T. Vreven, J. A. Montgomery, Jr., 
 J. E. Peralta, F. Ogliaro, M. Bearpark, J. J. Heyd, E. Brothers, 
 K. N. Kudin, V. N. Staroverov, T. Keith, R. Kobayashi, J. Normand, 
 K. Raghavachari, A. Rendell, J. C. Burant, S. S. Iyengar, J. Tomasi, 
 M. Cossi, N. Rega, J. M. Millam, M. Klene, J. E. Knox, J. B. Cross, 
 V. Bakken, C. Adamo, J. Jaramillo, R. Gomperts, R. E. Stratmann, 
 O. Yazyev, A. J. Austin, R. Cammi, C. Pomelli, J. W. Ochterski, 
 R. L. Martin, K. Morokuma, V. G. Zakrzewski, G. A. Voth, 
 P. Salvador, J. J. Dannenberg, S. Dapprich, A. D. Daniels, 
 O. Farkas, J. B. Foresman, J. V. Ortiz, J. Cioslowski, 
 and D. J. Fox, Gaussian, Inc., Wallingford CT, 2013.
 
 ******************************************
 Gaussian 09:  EM64L-G09RevE.01 30-Nov-2015
                28-Aug-2021 
 ******************************************
 %nprocshared=64
 Will use up to   64 processors via shared memory.
 %mem=128GB
 %chk=TST_H2O_wB97.chk
 -----------------------------------------------------------------
 #p opt=(calcfc,qst3,maxcycle=200) freq gen geom=connectivity wb97
 -----------------------------------------------------------------
 1/5=1,6=200,10=4,14=-1,18=20,26=3,27=203,38=1,57=2/1,3;
 2/9=110,12=2,17=6,18=5,40=1/2;
 3/5=7,11=2,16=1,25=1,30=1,71=2,74=-56,140=1/1,2,3;
 4//1;
 5/5=2,38=5/2;
 8/6=4,10=90,11=11/1;
 11/6=1,8=1,9=11,15=111,16=1/1,2,10;
 10/6=1,13=1/2;
 6/7=2,8=2,9=2,10=2,28=1/1;
 7/10=1,18=20,25=1/1,2,3,16;
 1/5=1,6=200,10=4,14=-1,18=20,26=3,27=203/3(2);
 2/9=110/2;
 99//99;
 2/9=110/2;
 3/5=7,6=1,11=2,16=1,25=1,30=1,71=1,74=-56,82=7/1,2,3;
 4/5=5,16=3,69=1/1;
 5/5=2,38=5/2;
 7//1,2,3,16;
 1/5=1,6=200,14=-1,18=20,26=3,27=203/3(-5);
 2/9=110/2;
 6/7=2,8=2,9=2,10=2,19=2,28=1/1;
 99/9=1/99;
 Leave Link    1 at Sat Aug 28 23:58:01 2021, MaxMem= 17179869184 cpu:        13.6
 (Enter /public3/home/sc51754/softwares/g09e01/l101.exe)
 ------------------------
 HY_H2O_wB97_PC2_OPT_FREQ
 ------------------------
 Symbolic Z-matrix:
 Charge =  0 Multiplicity = 1
 O                     1.21247   1.44001  -0.00126 
 N                     0.30351  -0.67022  -0.00369 
 C                     0.13562   0.64625   0.00079 
 C                    -1.12832   1.25407   0.00771 
 C                    -0.79169  -1.44355  -0.00481 
 C                    -2.2362    0.44109   0.00809 
 C                    -2.07553  -0.94743   0.00124 
 H                     2.02405   0.89451  -0.01754 
 H                    -1.19551   2.33383   0.01085 
 H                    -0.61047  -2.51406  -0.01153 
 H                    -3.22859   0.8784    0.01263 
 H                    -2.92468  -1.61783  -0.00022 
 O                     3.10365  -0.57547  -0.08344 
 H                     3.62137  -0.8844    0.66051 
 H                     2.23699  -1.01769  -0.02952 
 
 Add virtual bond connecting atoms O13        and H8         Dist= 3.45D+00.
 Add virtual bond connecting atoms H15        and N2         Dist= 3.71D+00.
 Add virtual bond connecting atoms H15        and H8         Dist= 3.64D+00.
 Add atom     13 valence  3 ND=      2 dihedral       8     13     14     15
 ------------------------
 PY_H2O_wB97_PC2_OPT_FREQ
 ------------------------
 Symbolic Z-matrix:
 Charge =  0 Multiplicity = 1
 O                     1.25492   1.39223   0.01056 
 N                     0.25807  -0.65335   0.01665 
 C                     0.21357   0.7312    0.00883 
 C                    -1.12299   1.2861   -0.00218 
 C                    -0.83894  -1.45813   0.00968 
 C                    -2.21303   0.48269  -0.00824 
 C                    -2.08661  -0.93816  -0.00281 
 H                     2.70503   0.27876  -0.0399 
 H                    -1.19683   2.36547  -0.00731 
 H                    -0.63845  -2.52223   0.01407 
 H                    -3.20336   0.92567  -0.01809 
 H                    -2.95172  -1.58512  -0.00898 
 O                     3.08155  -0.62195  -0.08089 
 H                     3.88113  -0.61775   0.44401 
 H                     1.19399  -1.05579   0.03065 
 
 Add virtual bond connecting atoms H8         and O1         Dist= 3.46D+00.
 Add virtual bond connecting atoms O13        and H15        Dist= 3.67D+00.
 ------------
 TST_H2O_wB97
 ------------
 Symbolic Z-matrix:
 Charge =  0 Multiplicity = 1
 O                     1.31981   1.42288  -0.00241 
 N                     0.41086  -0.68735  -0.00484 
 C                     0.24297   0.62912  -0.00036 
 C                    -1.02097   1.23694   0.00656 
 C                    -0.68434  -1.46068  -0.00596 
 C                    -2.12885   0.42396   0.00693 
 C                    -1.96819  -0.96456   0.00008 
 H                     2.22594   0.62276  -0.033 
 H                    -1.08816   2.31671   0.0097 
 H                    -0.50313  -2.53119  -0.01268 
 H                    -3.12124   0.86127   0.01147 
 H                    -2.81733  -1.63495  -0.00137 
 O                     2.64763  -0.39258  -0.06843 
 H                     3.16535  -0.70151   0.67552 
 H                     1.65972  -0.8727   -0.0091 
 
 NAtoms=     15 NQM=       15 NQMF=       0 NMMI=      0 NMMIF=      0
                NMic=       0 NMicF=      0.
                    Isotopes and Nuclear Properties:
 (Nuclear quadrupole moments (NQMom) in fm**2, nuclear magnetic moments (NMagM)
  in nuclear magnetons)

  Atom         1           2           3           4           5           6           7           8           9          10
 IAtWgt=          16          14          12          12          12          12          12           1           1           1
 AtmWgt=  15.9949146  14.0030740  12.0000000  12.0000000  12.0000000  12.0000000  12.0000000   1.0078250   1.0078250   1.0078250
 NucSpn=           0           2           0           0           0           0           0           1           1           1
 AtZEff=   0.0000000   0.0000000   0.0000000   0.0000000   0.0000000   0.0000000   0.0000000   0.0000000   0.0000000   0.0000000
 NQMom=    0.0000000   2.0440000   0.0000000   0.0000000   0.0000000   0.0000000   0.0000000   0.0000000   0.0000000   0.0000000
 NMagM=    0.0000000   0.4037610   0.0000000   0.0000000   0.0000000   0.0000000   0.0000000   2.7928460   2.7928460   2.7928460
 AtZNuc=   8.0000000   7.0000000   6.0000000   6.0000000   6.0000000   6.0000000   6.0000000   1.0000000   1.0000000   1.0000000

  Atom        11          12          13          14          15
 IAtWgt=           1           1          16           1           1
 AtmWgt=   1.0078250   1.0078250  15.9949146   1.0078250   1.0078250
 NucSpn=           1           1           0           1           1
 AtZEff=   0.0000000   0.0000000   0.0000000   0.0000000   0.0000000
 NQMom=    0.0000000   0.0000000   0.0000000   0.0000000   0.0000000
 NMagM=    2.7928460   2.7928460   0.0000000   2.7928460   2.7928460
 AtZNuc=   1.0000000   1.0000000   8.0000000   1.0000000   1.0000000
 Leave Link  101 at Sat Aug 28 23:58:02 2021, MaxMem= 17179869184 cpu:        19.1
 (Enter /public3/home/sc51754/softwares/g09e01/l103.exe)

 GradGradGradGradGradGradGradGradGradGradGradGradGradGradGradGradGradGrad
 Berny optimization.
 Initialization pass.
                           ----------------------------
                           !    Initial Parameters    !
                           ! (Angstroms and Degrees)  !
 --------------------------                            --------------------------
 ! Name  Definition        TS        Reactant  Product Derivative Info.         !
 --------------------------------------------------------------------------------
 ! R1    R(1,3)             1.3378    1.3378    1.2334 calculate D2E/DX2 analyti!
 ! R2    R(1,8)             1.2092    0.978     1.829  calculate D2E/DX2 analyti!
 ! R3    R(2,3)             1.3271    1.3271    1.3853 calculate D2E/DX2 analyti!
 ! R4    R(2,5)             1.3407    1.3407    1.3606 calculate D2E/DX2 analyti!
 ! R5    R(2,15)            1.2625    1.9646    1.0189 calculate D2E/DX2 analyti!
 ! R6    R(3,4)             1.4025    1.4025    1.4472 calculate D2E/DX2 analyti!
 ! R7    R(4,6)             1.3742    1.3742    1.3541 calculate D2E/DX2 analyti!
 ! R8    R(4,9)             1.0819    1.0819    1.0819 calculate D2E/DX2 analyti!
 ! R9    R(5,7)             1.3764    1.3764    1.3517 calculate D2E/DX2 analyti!
 ! R10   R(5,10)            1.0858    1.0858    1.0828 calculate D2E/DX2 analyti!
 ! R11   R(6,7)             1.3978    1.3978    1.4265 calculate D2E/DX2 analyti!
 ! R12   R(6,11)            1.0845    1.0845    1.0849 calculate D2E/DX2 analyti!
 ! R13   R(7,12)            1.0819    1.0819    1.0803 calculate D2E/DX2 analyti!
 ! R14   R(8,13)            1.1       1.825     0.9771 calculate D2E/DX2 analyti!
 ! R15   R(8,15)            1.5992    1.9241    2.0172 calculate D2E/DX2 analyti!
 ! R16   R(13,14)           0.9576    0.9576    0.9565 calculate D2E/DX2 analyti!
 ! R17   R(13,15)           1.1       0.9745    1.94   calculate D2E/DX2 analyti!
 ! A1    A(3,1,8)         102.159   109.6977  110.0641 calculate D2E/DX2 analyti!
 ! A2    A(3,2,5)         117.9586  117.9586  124.4199 calculate D2E/DX2 analyti!
 ! A3    A(3,2,15)        105.7102  107.4565  115.1104 calculate D2E/DX2 analyti!
 ! A4    A(5,2,15)        136.331   134.5801  120.4695 calculate D2E/DX2 analyti!
 ! A5    A(1,3,2)         119.1263  119.1263  120.5644 calculate D2E/DX2 analyti!
 ! A6    A(1,3,4)         117.9229  117.9229  125.0463 calculate D2E/DX2 analyti!
 ! A7    A(2,3,4)         122.9508  122.9508  114.3893 calculate D2E/DX2 analyti!
 ! A8    A(3,4,6)         118.0455  118.0455  121.0625 calculate D2E/DX2 analyti!
 ! A9    A(3,4,9)         119.2437  119.2437  116.4613 calculate D2E/DX2 analyti!
 ! A10   A(6,4,9)         122.7107  122.7107  122.476  calculate D2E/DX2 analyti!
 ! A11   A(2,5,7)         123.6448  123.6448  121.113  calculate D2E/DX2 analyti!
 ! A12   A(2,5,10)        115.6183  115.6183  115.5922 calculate D2E/DX2 analyti!
 ! A13   A(7,5,10)        120.7369  120.7369  123.2948 calculate D2E/DX2 analyti!
 ! A14   A(4,6,7)         119.6707  119.6707  121.3052 calculate D2E/DX2 analyti!
 ! A15   A(4,6,11)        119.9468  119.9468  119.5104 calculate D2E/DX2 analyti!
 ! A16   A(7,6,11)        120.3825  120.3825  119.1844 calculate D2E/DX2 analyti!
 ! A17   A(5,7,6)         117.7295  117.7295  117.7097 calculate D2E/DX2 analyti!
 ! A18   A(5,7,12)        120.58    120.58    120.5868 calculate D2E/DX2 analyti!
 ! A19   A(6,7,12)        121.6905  121.6905  121.7034 calculate D2E/DX2 analyti!
 ! A20   A(1,8,13)        154.0067  160.1771  150.2125 calculate D2E/DX2 analyti!
 ! A21   A(1,8,15)        110.6743  130.2609   78.9247 calculate D2E/DX2 analyti!
 ! A22   A(8,13,14)       118.6878  123.4792  107.1613 calculate D2E/DX2 analyti!
 ! A23   A(8,13,15)        93.2591   80.6428   80.1427 calculate D2E/DX2 analyti!
 ! A24   A(14,13,15)      107.6294  106.9455  141.5175 calculate D2E/DX2 analyti!
 ! A25   A(2,15,8)        102.2974   73.4548  115.2321 calculate D2E/DX2 analyti!
 ! A26   A(2,15,13)       145.5347  142.726   143.5755 calculate D2E/DX2 analyti!
 ! D1    D(8,1,3,2)         1.1937    0.7117    2.1351 calculate D2E/DX2 analyti!
 ! D2    D(8,1,3,4)      -178.8097 -179.2917 -177.8115 calculate D2E/DX2 analyti!
 ! D3    D(3,1,8,13)        1.0158    3.2086    1.4149 calculate D2E/DX2 analyti!
 ! D4    D(3,1,8,15)       -1.6851   -0.5887   -2.3963 calculate D2E/DX2 analyti!
 ! D5    D(5,2,3,1)      -179.8403 -179.8403 -179.7067 calculate D2E/DX2 analyti!
 ! D6    D(5,2,3,4)         0.1633    0.1633    0.2454 calculate D2E/DX2 analyti!
 ! D7    D(15,2,3,1)        0.0615   -0.521     0.4341 calculate D2E/DX2 analyti!
 ! D8    D(15,2,3,4)     -179.9349  179.4826 -179.6139 calculate D2E/DX2 analyti!
 ! D9    D(3,2,5,7)        -0.1408   -0.1408   -0.152  calculate D2E/DX2 analyti!
 ! D10   D(3,2,5,10)      179.8233  179.8233  179.8048 calculate D2E/DX2 analyti!
 ! D11   D(15,2,5,7)      179.9961 -179.2292  179.7002 calculate D2E/DX2 analyti!
 ! D12   D(15,2,5,10)      -0.0398    0.7349   -0.3431 calculate D2E/DX2 analyti!
 ! D13   D(3,2,15,8)       -0.9804    0.1827   -2.5994 calculate D2E/DX2 analyti!
 ! D14   D(3,2,15,13)      -5.3315   -4.2145   -6.6425 calculate D2E/DX2 analyti!
 ! D15   D(5,2,15,8)      178.894   179.3386  177.5353 calculate D2E/DX2 analyti!
 ! D16   D(5,2,15,13)     174.5428  174.9414  173.4923 calculate D2E/DX2 analyti!
 ! D17   D(1,3,4,6)       179.9176  179.9176  179.7553 calculate D2E/DX2 analyti!
 ! D18   D(1,3,4,9)         0.0186    0.0186   -0.1214 calculate D2E/DX2 analyti!
 ! D19   D(2,3,4,6)        -0.086    -0.086    -0.1943 calculate D2E/DX2 analyti!
 ! D20   D(2,3,4,9)      -179.985  -179.985   179.929  calculate D2E/DX2 analyti!
 ! D21   D(3,4,6,7)        -0.0197   -0.0197    0.057  calculate D2E/DX2 analyti!
 ! D22   D(3,4,6,11)     -179.9557 -179.9557 -179.9019 calculate D2E/DX2 analyti!
 ! D23   D(9,4,6,7)       179.8756  179.8756  179.9262 calculate D2E/DX2 analyti!
 ! D24   D(9,4,6,11)       -0.0605   -0.0605   -0.0328 calculate D2E/DX2 analyti!
 ! D25   D(2,5,7,6)         0.0404    0.0404   -0.0082 calculate D2E/DX2 analyti!
 ! D26   D(2,5,7,12)      179.9868  179.9868  179.9563 calculate D2E/DX2 analyti!
 ! D27   D(10,5,7,6)     -179.9219 -179.9219 -179.9615 calculate D2E/DX2 analyti!
 ! D28   D(10,5,7,12)       0.0245    0.0245    0.003  calculate D2E/DX2 analyti!
 ! D29   D(4,6,7,5)         0.0409    0.0409    0.0504 calculate D2E/DX2 analyti!
 ! D30   D(4,6,7,12)     -179.9049 -179.9049 -179.9137 calculate D2E/DX2 analyti!
 ! D31   D(11,6,7,5)      179.9767  179.9767 -179.9905 calculate D2E/DX2 analyti!
 ! D32   D(11,6,7,12)       0.0309    0.0309    0.0454 calculate D2E/DX2 analyti!
 ! D33   D(1,8,13,14)    -115.8263 -109.9964 -145.0156 calculate D2E/DX2 analyti!
 ! D34   D(1,8,13,15)      -3.681    -5.8046   -3.9477 calculate D2E/DX2 analyti!
 ! D35   D(1,8,15,2)        1.8612    0.2679    3.0355 calculate D2E/DX2 analyti!
 ! D36   D(8,13,14,15)    103.9983   89.8701   95.7703 calculate D2E/DX2 analyti!
 ! D37   D(8,13,15,2)       6.197     4.504     7.6803 calculate D2E/DX2 analyti!
 ! D38   D(14,13,15,2)    127.704   126.7965  112.9099 calculate D2E/DX2 analyti!
 --------------------------------------------------------------------------------
 Trust Radius=3.00D-01 FncErr=1.00D-07 GrdErr=1.00D-06
 Number of steps in this run=    100 maximum allowed number of steps=    100.
 Search for a saddle point of order  1.
 GradGradGradGradGradGradGradGradGradGradGradGradGradGradGradGradGradGrad

 Leave Link  103 at Sat Aug 28 23:58:02 2021, MaxMem= 17179869184 cpu:         1.0
 (Enter /public3/home/sc51754/softwares/g09e01/l202.exe)
                          Input orientation:                          
 ---------------------------------------------------------------------
 Center     Atomic      Atomic             Coordinates (Angstroms)
 Number     Number       Type             X           Y           Z
 ---------------------------------------------------------------------
      1          8           0        1.319812    1.422879   -0.002411
      2          7           0        0.410859   -0.687349   -0.004842
      3          6           0        0.242970    0.629122   -0.000364
      4          6           0       -1.020969    1.236943    0.006558
      5          6           0       -0.684339   -1.460680   -0.005963
      6          6           0       -2.128855    0.423965    0.006930
      7          6           0       -1.968187   -0.964556    0.000084
      8          1           0        2.225942    0.622759   -0.032998
      9          1           0       -1.088158    2.316706    0.009695
     10          1           0       -0.503127   -2.531185   -0.012681
     11          1           0       -3.121239    0.861273    0.011470
     12          1           0       -2.817330   -1.634951   -0.001372
     13          8           0        2.647632   -0.392584   -0.068425
     14          1           0        3.165353   -0.701514    0.675523
     15          1           0        1.659722   -0.872702   -0.009105
 ---------------------------------------------------------------------
                    Distance matrix (angstroms):
                    1          2          3          4          5
     1  O    0.000000
     2  N    2.297665   0.000000
     3  C    1.337775   1.327141   0.000000
     4  C    2.348171   2.398575   1.402511   0.000000
     5  C    3.511630   1.340709   2.286308   2.718574   0.000000
     6  C    3.590435   2.772238   2.380692   1.374171   2.374590
     7  C    4.063347   2.395147   2.725624   2.396635   1.376387
     8  H    1.209214   2.238683   1.983250   3.304726   3.579271
     9  H    2.568539   3.357322   2.149405   1.081856   3.798942
    10  H    4.354060   2.057951   3.247207   3.803593   1.085755
    11  H    4.476441   3.856710   3.372230   2.133609   3.366044
    12  H    5.144538   3.364397   3.806766   3.387440   2.140103
    13  O    2.250193   2.257008   2.613602   4.014924   3.499538
    14  H    2.894592   2.837311   3.281423   4.661590   3.982573
    15  H    2.320620   1.262550   2.064640   3.411297   2.416681
                    6          7          8          9         10
     6  C    0.000000
     7  C    1.397802   0.000000
     8  H    4.359514   4.484571   0.000000
     9  H    2.159983   3.397238   3.722168   0.000000
    10  H    3.372875   2.144969   4.170802   4.883115   0.000000
    11  H    1.084474   2.159470   5.352682   2.500341   4.285308
    12  H    2.170991   1.081885   5.525653   4.313438   2.481713
    13  O    4.846366   4.651627   1.100000   4.615461   3.808413
    14  H    5.453656   5.184462   1.771496   5.257883   4.156810
    15  H    4.004362   3.629083   1.599244   4.209931   2.725526
                   11         12         13         14         15
    11  H    0.000000
    12  H    2.514689   0.000000
    13  O    5.904102   5.604800   0.000000
    14  H    6.511875   6.092782   0.957565   0.000000
    15  H    5.085733   4.541484   1.100000   1.662813   0.000000
 Stoichiometry    C5H7NO2
 Framework group  C1[X(C5H7NO2)]
 Deg. of freedom    39
 Full point group                 C1      NOp   1
 Largest Abelian subgroup         C1      NOp   1
 Largest concise Abelian subgroup C1      NOp   1
                         Standard orientation:                         
 ---------------------------------------------------------------------
 Center     Atomic      Atomic             Coordinates (Angstroms)
 Number     Number       Type             X           Y           Z
 ---------------------------------------------------------------------
      1          8           0        1.420630    1.296919   -0.004791
      2          7           0        0.337803   -0.729590   -0.008440
      3          6           0        0.280987    0.596315   -0.001304
      4          6           0       -0.927469    1.308034    0.009909
      5          6           0       -0.818425   -1.408293   -0.008040
      6          6           0       -2.099663    0.590886    0.011769
      7          6           0       -2.056095   -0.806205    0.002161
      8          1           0        2.256346    0.423648   -0.039071
      9          1           0       -0.903806    2.389619    0.015045
     10          1           0       -0.727699   -2.490213   -0.017035
     11          1           0       -3.051837    1.109912    0.019611
     12          1           0       -2.958499   -1.402981    0.001765
     13          8           0        2.591261   -0.623429   -0.077302
     14          1           0        3.083040   -0.976125    0.664783
     15          1           0        1.566693   -1.019072   -0.016243
 ---------------------------------------------------------------------
 Rotational constants (GHZ):      4.2460377      1.6758689      1.2046490
 Leave Link  202 at Sat Aug 28 23:58:02 2021, MaxMem= 17179869184 cpu:         5.3
 (Enter /public3/home/sc51754/softwares/g09e01/l301.exe)
 General basis read from cards:  (5D, 7F)
 Centers:       8      9     10     11     12     14     15
 S 4 1.00
     Exponent=  7.5423000000D+01 Coefficients=  2.4065000000D-03
     Exponent=  1.1350000000D+01 Coefficients=  1.8487000000D-02
     Exponent=  2.5993000000D+00 Coefficients=  8.9742000000D-02
     Exponent=  7.3513000000D-01 Coefficients=  2.8111000000D-01
 S 1 1.00
     Exponent=  2.3167000000D-01 Coefficients=  1.0000000000D+00
 S 1 1.00
     Exponent=  7.4147000000D-02 Coefficients=  1.0000000000D+00
 P 1 1.00
     Exponent=  1.6000000000D+00 Coefficients=  1.0000000000D+00
 P 1 1.00
     Exponent=  4.5000000000D-01 Coefficients=  1.0000000000D+00
 D 1 1.00
     Exponent=  1.2500000000D+00 Coefficients=  1.0000000000D+00
 ****
 Centers:       3      4      5      6      7
 S 7 1.00
     Exponent=  7.8571000000D+03 Coefficients=  5.6825000000D-04
     Exponent=  1.1787000000D+03 Coefficients=  4.3915000000D-03
     Exponent=  2.6832000000D+02 Coefficients=  2.2504000000D-02
     Exponent=  7.5948000000D+01 Coefficients=  8.6653000000D-02
     Exponent=  2.4559000000D+01 Coefficients=  2.4405000000D-01
     Exponent=  8.6212000000D+00 Coefficients=  4.4148000000D-01
     Exponent=  3.1278000000D+00 Coefficients=  3.5332000000D-01
 S 7 1.00
     Exponent=  1.1787000000D+03 Coefficients= -5.9492000000D-07
     Exponent=  2.6832000000D+02 Coefficients= -6.2748000000D-05
     Exponent=  7.5948000000D+01 Coefficients= -7.5773000000D-04
     Exponent=  2.4559000000D+01 Coefficients= -7.3308000000D-03
     Exponent=  8.6212000000D+00 Coefficients= -3.8932000000D-02
     Exponent=  3.1278000000D+00 Coefficients= -8.8908000000D-02
     Exponent=  8.2202000000D-01 Coefficients=  2.1689000000D-01
 S 1 1.00
     Exponent=  3.3017000000D-01 Coefficients=  1.0000000000D+00
 S 1 1.00
     Exponent=  1.1463000000D-01 Coefficients=  1.0000000000D+00
 P 4 1.00
     Exponent=  3.3775000000D+01 Coefficients=  6.0294000000D-03
     Exponent=  7.6766000000D+00 Coefficients=  4.3228000000D-02
     Exponent=  2.2357000000D+00 Coefficients=  1.6301000000D-01
     Exponent=  7.6447000000D-01 Coefficients=  3.6504000000D-01
 P 1 1.00
     Exponent=  2.6232000000D-01 Coefficients=  1.0000000000D+00
 P 1 1.00
     Exponent=  8.4638000000D-02 Coefficients=  1.0000000000D+00
 D 1 1.00
     Exponent=  1.4000000000D+00 Coefficients=  1.0000000000D+00
 D 1 1.00
     Exponent=  4.5000000000D-01 Coefficients=  1.0000000000D+00
 F 1 1.00
     Exponent=  9.5000000000D-01 Coefficients=  1.0000000000D+00
 ****
 Centers:       2
 S 7 1.00
     Exponent=  1.1101000000D+04 Coefficients=  5.4570000000D-04
     Exponent=  1.6653000000D+03 Coefficients=  4.2181000000D-03
     Exponent=  3.7908000000D+02 Coefficients=  2.1645000000D-02
     Exponent=  1.0730000000D+02 Coefficients=  8.3776000000D-02
     Exponent=  3.4747000000D+01 Coefficients=  2.3881000000D-01
     Exponent=  1.2249000000D+01 Coefficients=  4.3994000000D-01
     Exponent=  4.4743000000D+00 Coefficients=  3.6364000000D-01
 S 7 1.00
     Exponent=  1.6653000000D+03 Coefficients= -1.5006000000D-06
     Exponent=  3.7908000000D+02 Coefficients= -5.8753000000D-05
     Exponent=  1.0730000000D+02 Coefficients= -7.7453000000D-04
     Exponent=  3.4747000000D+01 Coefficients= -7.2161000000D-03
     Exponent=  1.2249000000D+01 Coefficients= -3.9338000000D-02
     Exponent=  4.4743000000D+00 Coefficients= -9.0611000000D-02
     Exponent=  1.2404000000D+00 Coefficients=  1.9882000000D-01
 S 1 1.00
     Exponent=  4.8743000000D-01 Coefficients=  1.0000000000D+00
 S 1 1.00
     Exponent=  1.6484000000D-01 Coefficients=  1.0000000000D+00
 P 4 1.00
     Exponent=  4.7934000000D+01 Coefficients=  6.1706000000D-03
     Exponent=  1.0999000000D+01 Coefficients=  4.4260000000D-02
     Exponent=  3.2472000000D+00 Coefficients=  1.6825000000D-01
     Exponent=  1.1114000000D+00 Coefficients=  3.6848000000D-01
 P 1 1.00
     Exponent=  3.7988000000D-01 Coefficients=  1.0000000000D+00
 P 1 1.00
     Exponent=  1.2068000000D-01 Coefficients=  1.0000000000D+00
 D 1 1.00
     Exponent=  1.8000000000D+00 Coefficients=  1.0000000000D+00
 D 1 1.00
     Exponent=  5.5000000000D-01 Coefficients=  1.0000000000D+00
 F 1 1.00
     Exponent=  1.0200000000D+00 Coefficients=  1.0000000000D+00
 ****
 Centers:       1     13
 S 7 1.00
     Exponent=  1.4782000000D+04 Coefficients=  5.3519000000D-04
     Exponent=  2.2173000000D+03 Coefficients=  4.1375000000D-03
     Exponent=  5.0474000000D+02 Coefficients=  2.1245000000D-02
     Exponent=  1.4287000000D+02 Coefficients=  8.2453000000D-02
     Exponent=  4.6300000000D+01 Coefficients=  2.3671000000D-01
     Exponent=  1.6337000000D+01 Coefficients=  4.4039000000D-01
     Exponent=  5.9828000000D+00 Coefficients=  3.6465000000D-01
 S 7 1.00
     Exponent=  2.2173000000D+03 Coefficients= -1.9275000000D-06
     Exponent=  5.0474000000D+02 Coefficients= -5.7964000000D-05
     Exponent=  1.4287000000D+02 Coefficients= -7.9494000000D-04
     Exponent=  4.6300000000D+01 Coefficients= -7.3125000000D-03
     Exponent=  1.6337000000D+01 Coefficients= -4.0574000000D-02
     Exponent=  5.9828000000D+00 Coefficients= -9.1594000000D-02
     Exponent=  1.6718000000D+00 Coefficients=  2.0940000000D-01
 S 1 1.00
     Exponent=  6.4662000000D-01 Coefficients=  1.0000000000D+00
 S 1 1.00
     Exponent=  2.1669000000D-01 Coefficients=  1.0000000000D+00
 P 4 1.00
     Exponent=  6.0424000000D+01 Coefficients=  6.8949000000D-03
     Exponent=  1.3935000000D+01 Coefficients=  4.9005000000D-02
     Exponent=  4.1531000000D+00 Coefficients=  1.8255000000D-01
     Exponent=  1.4158000000D+00 Coefficients=  3.7633000000D-01
 P 1 1.00
     Exponent=  4.7549000000D-01 Coefficients=  1.0000000000D+00
 P 1 1.00
     Exponent=  1.4529000000D-01 Coefficients=  1.0000000000D+00
 D 1 1.00
     Exponent=  2.2000000000D+00 Coefficients=  1.0000000000D+00
 D 1 1.00
     Exponent=  6.5000000000D-01 Coefficients=  1.0000000000D+00
 F 1 1.00
     Exponent=  1.1000000000D+00 Coefficients=  1.0000000000D+00
 ****
 Ernie: Thresh=  0.10000D-02 Tol=  0.10000D-05 Strict=F.
 Ernie:  8 primitive shells out of 263 were deleted.
 There are   385 symmetry adapted cartesian basis functions of A   symmetry.
 There are   338 symmetry adapted basis functions of A   symmetry.
   338 basis functions,   566 primitive gaussians,   385 cartesian basis functions
    30 alpha electrons       30 beta electrons
       nuclear repulsion energy       371.7542843730 Hartrees.
 IExCor= 4437 DFT=T Ex+Corr=wB97 ExCW=0 ScaHFX=  1.000000
 ScaDFX=  1.000000  1.000000  1.000000  1.000000 ScalE2=  1.000000  1.000000
 IRadAn=      0 IRanWt=     -1 IRanGd=            0 ICorTp=0 IEmpDi=  4
  HFx wShort=  0.000000 wLong=  0.400000 cFull=  0.000000 cShort=  0.000000 cLong=  1.000000
  DFx wShort=  0.000000 wLong=  0.400000 cFull=  0.000000 cShort=  0.000000 cLong=  1.000000
 NAtoms=   15 NActive=   15 NUniq=   15 SFac= 1.00D+00 NAtFMM=   60 NAOKFM=F Big=F
 Integral buffers will be    131072 words long.
 Raffenetti 2 integral format.
 Two-electron integral symmetry is turned on.
 Leave Link  301 at Sat Aug 28 23:58:03 2021, MaxMem= 17179869184 cpu:         5.0
 (Enter /public3/home/sc51754/softwares/g09e01/l302.exe)
 NPDir=0 NMtPBC=     1 NCelOv=     1 NCel=       1 NClECP=     1 NCelD=      1
         NCelK=      1 NCelE2=     1 NClLst=     1 CellRange=     0.0.
 One-electron integrals computed using PRISM.
 NBasis=   338 RedAO= T EigKep=  1.47D-04  NBF=   338
 NBsUse=   338 1.00D-06 EigRej= -1.00D+00 NBFU=   338
 Precomputing XC quadrature grid using
 IXCGrd= 4 IRadAn=           0 IRanWt=          -1 IRanGd=           0 AccXCQ= 0.00D+00.
 Generated NRdTot=       0 NPtTot=           0 NUsed=           0 NTot=          32
 NSgBfM=   385   385   385   385   385 MxSgAt=    15 MxSgA2=    15.
 Leave Link  302 at Sat Aug 28 23:58:04 2021, MaxMem= 17179869184 cpu:        60.0
 (Enter /public3/home/sc51754/softwares/g09e01/l303.exe)
 DipDrv:  MaxL=1.
 Leave Link  303 at Sat Aug 28 23:58:04 2021, MaxMem= 17179869184 cpu:        10.8
 (Enter /public3/home/sc51754/softwares/g09e01/l401.exe)
 ExpMin= 7.41D-02 ExpMax= 1.48D+04 ExpMxC= 5.05D+02 IAcc=2 IRadAn=         4 AccDes= 0.00D+00
 Harris functional with IExCor= 4437 and IRadAn=       4 diagonalized for initial guess.
 HarFok:  IExCor= 4437 AccDes= 0.00D+00 IRadAn=         4 IDoV= 1 UseB2=F ITyADJ=14
 ICtDFT=  3500011 ScaDFX=  1.000000  1.000000  1.000000  1.000000
 FoFCou: FMM=F IPFlag=           0 FMFlag=      100000 FMFlg1=           0
         NFxFlg=           0 DoJE=T BraDBF=F KetDBF=T FulRan=T
         wScrn=  0.000000 ICntrl=     500 IOpCl=  0 I1Cent=   200000004 NGrid=           0
         NMat0=    1 NMatS0=      1 NMatT0=    0 NMatD0=    1 NMtDS0=    0 NMtDT0=    0
 Petite list used in FoFCou.
 Harris En= -387.983409218052    
 JPrj=0 DoOrth=F DoCkMO=F.
 Leave Link  401 at Sat Aug 28 23:58:05 2021, MaxMem= 17179869184 cpu:        50.0
 (Enter /public3/home/sc51754/softwares/g09e01/l502.exe)
 Closed shell SCF:
 Using DIIS extrapolation, IDIIS=  1040.
 Integral symmetry usage will be decided dynamically.
 Keep R1 ints in memory in canonical form, NReq=3311562672.
 IVT=      490665 IEndB=      490665 NGot= 17179869184 MDV= 13897062548
 LenX= 13897062548 LenY= 13896913882
 Requested convergence on RMS density matrix=1.00D-08 within 128 cycles.
 Requested convergence on MAX density matrix=1.00D-06.
 Requested convergence on             energy=1.00D-06.
 No special actions if energy rises.
 FoFCou: FMM=F IPFlag=           0 FMFlag=           0 FMFlg1=           0
         NFxFlg=           0 DoJE=F BraDBF=F KetDBF=F FulRan=T
         wScrn=  0.000000 ICntrl=     600 IOpCl=  0 I1Cent=           0 NGrid=           0
         NMat0=    1 NMatS0=  57291 NMatT0=    0 NMatD0=    1 NMtDS0=    0 NMtDT0=    0
 Symmetry not used in FoFCou.
 Integral accuracy reduced to 1.0D-05 until final iterations.

 Cycle   1  Pass 0  IDiag  1:
 E= -399.919344013716    
 DIIS: error= 1.56D-02 at cycle   1 NSaved=   1.
 NSaved= 1 IEnMin= 1 EnMin= -399.919344013716     IErMin= 1 ErrMin= 1.56D-02
 ErrMax= 1.56D-02  0.00D+00 EMaxC= 1.00D-01 BMatC= 1.15D-01 BMatP= 1.15D-01
 IDIUse=3 WtCom= 8.44D-01 WtEn= 1.56D-01
 Coeff-Com:  0.100D+01
 Coeff-En:   0.100D+01
 Coeff:      0.100D+01
 Gap=     0.349 Goal=   None    Shift=    0.000
 GapD=    0.349 DampG=1.000 DampE=0.500 DampFc=0.5000 IDamp=-1.
 Damping current iteration by 5.00D-01
 RMSDP=1.20D-03 MaxDP=6.95D-02              OVMax= 9.66D-02

 Cycle   2  Pass 0  IDiag  1:
 E= -399.963669476681     Delta-E=       -0.044325462965 Rises=F Damp=T
 DIIS: error= 4.77D-03 at cycle   2 NSaved=   2.
 NSaved= 2 IEnMin= 2 EnMin= -399.963669476681     IErMin= 2 ErrMin= 4.77D-03
 ErrMax= 4.77D-03  0.00D+00 EMaxC= 1.00D-01 BMatC= 7.94D-03 BMatP= 1.15D-01
 IDIUse=3 WtCom= 9.52D-01 WtEn= 4.77D-02
 Coeff-Com: -0.772D-01 0.108D+01
 Coeff-En:   0.000D+00 0.100D+01
 Coeff:     -0.736D-01 0.107D+01
 Gap=     0.376 Goal=   None    Shift=    0.000
 RMSDP=4.54D-04 MaxDP=2.11D-02 DE=-4.43D-02 OVMax= 4.98D-02

 Cycle   3  Pass 0  IDiag  1:
 E= -400.006760717734     Delta-E=       -0.043091241053 Rises=F Damp=F
 DIIS: error= 1.95D-03 at cycle   3 NSaved=   3.
 NSaved= 3 IEnMin= 3 EnMin= -400.006760717734     IErMin= 3 ErrMin= 1.95D-03
 ErrMax= 1.95D-03  0.00D+00 EMaxC= 1.00D-01 BMatC= 2.34D-03 BMatP= 7.94D-03
 IDIUse=3 WtCom= 9.81D-01 WtEn= 1.95D-02
 Coeff-Com: -0.823D-01 0.356D+00 0.727D+00
 Coeff-En:   0.000D+00 0.000D+00 0.100D+01
 Coeff:     -0.807D-01 0.349D+00 0.732D+00
 Gap=     0.366 Goal=   None    Shift=    0.000
 RMSDP=1.30D-04 MaxDP=8.71D-03 DE=-4.31D-02 OVMax= 1.46D-02

 Cycle   4  Pass 0  IDiag  1:
 E= -400.008463635638     Delta-E=       -0.001702917904 Rises=F Damp=F
 DIIS: error= 8.37D-04 at cycle   4 NSaved=   4.
 NSaved= 4 IEnMin= 4 EnMin= -400.008463635638     IErMin= 4 ErrMin= 8.37D-04
 ErrMax= 8.37D-04  0.00D+00 EMaxC= 1.00D-01 BMatC= 3.85D-04 BMatP= 2.34D-03
 IDIUse=3 WtCom= 9.92D-01 WtEn= 8.37D-03
 Coeff-Com: -0.239D-01 0.148D-01 0.306D+00 0.704D+00
 Coeff-En:   0.000D+00 0.000D+00 0.000D+00 0.100D+01
 Coeff:     -0.237D-01 0.147D-01 0.303D+00 0.706D+00
 Gap=     0.368 Goal=   None    Shift=    0.000
 RMSDP=5.19D-05 MaxDP=3.60D-03 DE=-1.70D-03 OVMax= 3.60D-03

 Cycle   5  Pass 0  IDiag  1:
 E= -400.008782553895     Delta-E=       -0.000318918258 Rises=F Damp=F
 DIIS: error= 2.26D-04 at cycle   5 NSaved=   5.
 NSaved= 5 IEnMin= 5 EnMin= -400.008782553895     IErMin= 5 ErrMin= 2.26D-04
 ErrMax= 2.26D-04  0.00D+00 EMaxC= 1.00D-01 BMatC= 2.04D-05 BMatP= 3.85D-04
 IDIUse=3 WtCom= 9.98D-01 WtEn= 2.26D-03
 Coeff-Com: -0.466D-02-0.136D-01 0.629D-01 0.227D+00 0.728D+00
 Coeff-En:   0.000D+00 0.000D+00 0.000D+00 0.000D+00 0.100D+01
 Coeff:     -0.465D-02-0.136D-01 0.627D-01 0.227D+00 0.729D+00
 Gap=     0.368 Goal=   None    Shift=    0.000
 RMSDP=1.62D-05 MaxDP=7.65D-04 DE=-3.19D-04 OVMax= 2.28D-03

 Cycle   6  Pass 0  IDiag  1:
 E= -400.008806585628     Delta-E=       -0.000024031733 Rises=F Damp=F
 DIIS: error= 1.27D-04 at cycle   6 NSaved=   6.
 NSaved= 6 IEnMin= 6 EnMin= -400.008806585628     IErMin= 6 ErrMin= 1.27D-04
 ErrMax= 1.27D-04  0.00D+00 EMaxC= 1.00D-01 BMatC= 4.28D-06 BMatP= 2.04D-05
 IDIUse=3 WtCom= 9.99D-01 WtEn= 1.27D-03
 Coeff-Com:  0.140D-02-0.601D-02-0.245D-01-0.426D-01 0.266D+00 0.805D+00
 Coeff-En:   0.000D+00 0.000D+00 0.000D+00 0.000D+00 0.000D+00 0.100D+01
 Coeff:      0.140D-02-0.600D-02-0.245D-01-0.426D-01 0.266D+00 0.806D+00
 Gap=     0.368 Goal=   None    Shift=    0.000
 RMSDP=8.80D-06 MaxDP=3.06D-04 DE=-2.40D-05 OVMax= 1.39D-03

 Initial convergence to 1.0D-05 achieved.  Increase integral accuracy.
 Cycle   7  Pass 1  IDiag  1:
 E= -400.008469873237     Delta-E=        0.000336712391 Rises=F Damp=F
 DIIS: error= 6.43D-05 at cycle   1 NSaved=   1.
 NSaved= 1 IEnMin= 1 EnMin= -400.008469873237     IErMin= 1 ErrMin= 6.43D-05
 ErrMax= 6.43D-05  0.00D+00 EMaxC= 1.00D-01 BMatC= 3.10D-06 BMatP= 3.10D-06
 IDIUse=1 WtCom= 1.00D+00 WtEn= 0.00D+00
 Coeff-Com:  0.100D+01
 Coeff:      0.100D+01
 Gap=     0.368 Goal=   None    Shift=    0.000
 RMSDP=8.80D-06 MaxDP=3.06D-04 DE= 3.37D-04 OVMax= 8.83D-04

 Cycle   8  Pass 1  IDiag  1:
 E= -400.008472947665     Delta-E=       -0.000003074427 Rises=F Damp=F
 DIIS: error= 4.37D-05 at cycle   2 NSaved=   2.
 NSaved= 2 IEnMin= 2 EnMin= -400.008472947665     IErMin= 2 ErrMin= 4.37D-05
 ErrMax= 4.37D-05  0.00D+00 EMaxC= 1.00D-01 BMatC= 3.08D-07 BMatP= 3.10D-06
 IDIUse=1 WtCom= 1.00D+00 WtEn= 0.00D+00
 Coeff-Com:  0.541D-01 0.946D+00
 Coeff:      0.541D-01 0.946D+00
 Gap=     0.368 Goal=   None    Shift=    0.000
 RMSDP=2.54D-06 MaxDP=1.35D-04 DE=-3.07D-06 OVMax= 5.49D-04

 Cycle   9  Pass 1  IDiag  1:
 E= -400.008473612488     Delta-E=       -0.000000664824 Rises=F Damp=F
 DIIS: error= 2.58D-05 at cycle   3 NSaved=   3.
 NSaved= 3 IEnMin= 3 EnMin= -400.008473612488     IErMin= 3 ErrMin= 2.58D-05
 ErrMax= 2.58D-05  0.00D+00 EMaxC= 1.00D-01 BMatC= 2.55D-07 BMatP= 3.08D-07
 IDIUse=1 WtCom= 1.00D+00 WtEn= 0.00D+00
 Coeff-Com: -0.715D-01 0.480D+00 0.591D+00
 Coeff:     -0.715D-01 0.480D+00 0.591D+00
 Gap=     0.368 Goal=   None    Shift=    0.000
 RMSDP=1.21D-06 MaxDP=9.22D-05 DE=-6.65D-07 OVMax= 2.30D-04

 Cycle  10  Pass 1  IDiag  1:
 E= -400.008473953046     Delta-E=       -0.000000340557 Rises=F Damp=F
 DIIS: error= 1.34D-05 at cycle   4 NSaved=   4.
 NSaved= 4 IEnMin= 4 EnMin= -400.008473953046     IErMin= 4 ErrMin= 1.34D-05
 ErrMax= 1.34D-05  0.00D+00 EMaxC= 1.00D-01 BMatC= 2.05D-08 BMatP= 2.55D-07
 IDIUse=1 WtCom= 1.00D+00 WtEn= 0.00D+00
 Coeff-Com:  0.122D-01-0.319D+00-0.284D+00 0.159D+01
 Coeff:      0.122D-01-0.319D+00-0.284D+00 0.159D+01
 Gap=     0.368 Goal=   None    Shift=    0.000
 RMSDP=1.55D-06 MaxDP=5.86D-05 DE=-3.41D-07 OVMax= 4.15D-04

 Cycle  11  Pass 1  IDiag  1:
 E= -400.008474125332     Delta-E=       -0.000000172286 Rises=F Damp=F
 DIIS: error= 6.17D-06 at cycle   5 NSaved=   5.
 NSaved= 5 IEnMin= 5 EnMin= -400.008474125332     IErMin= 5 ErrMin= 6.17D-06
 ErrMax= 6.17D-06  0.00D+00 EMaxC= 1.00D-01 BMatC= 5.90D-09 BMatP= 2.05D-08
 IDIUse=1 WtCom= 1.00D+00 WtEn= 0.00D+00
 Coeff-Com:  0.204D-01-0.230D+00-0.253D+00 0.672D+00 0.790D+00
 Coeff:      0.204D-01-0.230D+00-0.253D+00 0.672D+00 0.790D+00
 Gap=     0.368 Goal=   None    Shift=    0.000
 RMSDP=5.45D-07 MaxDP=1.88D-05 DE=-1.72D-07 OVMax= 1.37D-04

 Cycle  12  Pass 1  IDiag  1:
 E= -400.008474144915     Delta-E=       -0.000000019583 Rises=F Damp=F
 DIIS: error= 9.06D-07 at cycle   6 NSaved=   6.
 NSaved= 6 IEnMin= 6 EnMin= -400.008474144915     IErMin= 6 ErrMin= 9.06D-07
 ErrMax= 9.06D-07  0.00D+00 EMaxC= 1.00D-01 BMatC= 2.36D-10 BMatP= 5.90D-09
 IDIUse=1 WtCom= 1.00D+00 WtEn= 0.00D+00
 Coeff-Com:  0.232D-02-0.808D-02-0.113D-01-0.499D-01 0.107D+00 0.960D+00
 Coeff:      0.232D-02-0.808D-02-0.113D-01-0.499D-01 0.107D+00 0.960D+00
 Gap=     0.368 Goal=   None    Shift=    0.000
 RMSDP=1.24D-07 MaxDP=4.13D-06 DE=-1.96D-08 OVMax= 3.10D-05

 Cycle  13  Pass 1  IDiag  1:
 E= -400.008474145795     Delta-E=       -0.000000000880 Rises=F Damp=F
 DIIS: error= 3.34D-07 at cycle   7 NSaved=   7.
 NSaved= 7 IEnMin= 7 EnMin= -400.008474145795     IErMin= 7 ErrMin= 3.34D-07
 ErrMax= 3.34D-07  0.00D+00 EMaxC= 1.00D-01 BMatC= 3.21D-11 BMatP= 2.36D-10
 IDIUse=1 WtCom= 1.00D+00 WtEn= 0.00D+00
 Coeff-Com: -0.125D-02 0.178D-01 0.216D-01-0.640D-01-0.597D-01 0.203D+00
 Coeff-Com:  0.882D+00
 Coeff:     -0.125D-02 0.178D-01 0.216D-01-0.640D-01-0.597D-01 0.203D+00
 Coeff:      0.882D+00
 Gap=     0.368 Goal=   None    Shift=    0.000
 RMSDP=2.71D-08 MaxDP=9.97D-07 DE=-8.80D-10 OVMax= 4.75D-06

 Cycle  14  Pass 1  IDiag  1:
 E= -400.008474145866     Delta-E=       -0.000000000071 Rises=F Damp=F
 DIIS: error= 1.07D-07 at cycle   8 NSaved=   8.
 NSaved= 8 IEnMin= 8 EnMin= -400.008474145866     IErMin= 8 ErrMin= 1.07D-07
 ErrMax= 1.07D-07  0.00D+00 EMaxC= 1.00D-01 BMatC= 7.66D-12 BMatP= 3.21D-11
 IDIUse=1 WtCom= 1.00D+00 WtEn= 0.00D+00
 Coeff-Com: -0.760D-03 0.725D-02 0.100D-01-0.170D-01-0.414D-01-0.531D-01
 Coeff-Com:  0.333D+00 0.762D+00
 Coeff:     -0.760D-03 0.725D-02 0.100D-01-0.170D-01-0.414D-01-0.531D-01
 Coeff:      0.333D+00 0.762D+00
 Gap=     0.368 Goal=   None    Shift=    0.000
 RMSDP=1.16D-08 MaxDP=5.78D-07 DE=-7.12D-11 OVMax= 1.82D-06

 Cycle  15  Pass 1  IDiag  1:
 E= -400.008474145862     Delta-E=        0.000000000005 Rises=F Damp=F
 DIIS: error= 5.29D-08 at cycle   9 NSaved=   9.
 NSaved= 9 IEnMin= 8 EnMin= -400.008474145866     IErMin= 9 ErrMin= 5.29D-08
 ErrMax= 5.29D-08  0.00D+00 EMaxC= 1.00D-01 BMatC= 8.85D-13 BMatP= 7.66D-12
 IDIUse=1 WtCom= 1.00D+00 WtEn= 0.00D+00
 Coeff-Com: -0.667D-04-0.267D-03 0.523D-03 0.443D-02-0.635D-02-0.435D-01
 Coeff-Com: -0.170D-01 0.193D+00 0.869D+00
 Coeff:     -0.667D-04-0.267D-03 0.523D-03 0.443D-02-0.635D-02-0.435D-01
 Coeff:     -0.170D-01 0.193D+00 0.869D+00
 Gap=     0.368 Goal=   None    Shift=    0.000
 RMSDP=4.46D-09 MaxDP=1.72D-07 DE= 4.55D-12 OVMax= 6.75D-07

 SCF Done:  E(RwB97) =  -400.008474146     A.U. after   15 cycles
            NFock= 15  Conv=0.45D-08     -V/T= 2.0026
 KE= 3.989648997999D+02 PE=-1.679668820799D+03 EE= 5.089411624800D+02
 Leave Link  502 at Sat Aug 28 23:58:36 2021, MaxMem= 17179869184 cpu:       521.7
 (Enter /public3/home/sc51754/softwares/g09e01/l801.exe)
 DoSCS=F DFT=T ScalE2(SS,OS)=  1.000000  1.000000
 Range of M.O.s used for correlation:     1   338
 NBasis=   338 NAE=    30 NBE=    30 NFC=     0 NFV=     0
 NROrb=    338 NOA=    30 NOB=    30 NVA=   308 NVB=   308

 **** Warning!!: The largest alpha MO coefficient is  0.13391584D+02

 Leave Link  801 at Sat Aug 28 23:58:36 2021, MaxMem= 17179869184 cpu:         1.1
 (Enter /public3/home/sc51754/softwares/g09e01/l1101.exe)
 Using compressed storage, NAtomX=    15.
 Will process     16 centers per pass.
 Leave Link 1101 at Sat Aug 28 23:58:37 2021, MaxMem= 17179869184 cpu:        69.3
 (Enter /public3/home/sc51754/softwares/g09e01/l1102.exe)
 Symmetrizing basis deriv contribution to polar:
 IMax=3 JMax=2 DiffMx= 0.00D+00
 Leave Link 1102 at Sat Aug 28 23:58:38 2021, MaxMem= 17179869184 cpu:         7.3
 (Enter /public3/home/sc51754/softwares/g09e01/l1110.exe)
 Forming Gx(P) for the SCF density, NAtomX=    15.
 Integral derivatives from FoFJK, PRISM(SPDF).
 Do as many integral derivatives as possible in FoFJK.
 G2DrvN: MDV=   17179868960.
 G2DrvN: will do    16 centers at a time, making    1 passes.
 Calling FoFCou, ICntrl=  3107 FMM=F I1Cent=   0 AccDes= 0.00D+00.
 FoFJK:  IHMeth= 1 ICntrl=    3107 DoSepK=T KAlg= 0 I1Cent=   0 FoldK=F
 IRaf=         1 NMat=   1 IRICut=       1 DoRegI=T DoRafI=F ISym2E= 0.
 FoFCou: FMM=F IPFlag=           0 FMFlag=      100000 FMFlg1=           0
         NFxFlg=           0 DoJE=F BraDBF=F KetDBF=F FulRan=T
         wScrn=  0.000000 ICntrl=    3507 IOpCl=  0 I1Cent=           0 NGrid=           0
         NMat0=    1 NMatS0=      1 NMatT0=    0 NMatD0=    1 NMtDS0=    0 NMtDT0=    0
 Symmetry not used in FoFCou.
 End of G2Drv F.D. properties file   721 does not exist.
 End of G2Drv F.D. properties file   722 does not exist.
 End of G2Drv F.D. properties file   788 does not exist.
 Leave Link 1110 at Sat Aug 28 23:58:52 2021, MaxMem= 17179869184 cpu:       901.5
 (Enter /public3/home/sc51754/softwares/g09e01/l1002.exe)
 Minotr:  Closed shell wavefunction.
          IDoAtm=111111111111111
          Direct CPHF calculation.
          Differentiating once with respect to nuclear coordinates.
          Requested convergence is 1.0D-08 RMS, and 1.0D-07 maximum.
          Secondary convergence is 1.0D-12 RMS, and 1.0D-12 maximum.
          NewPWx=T KeepS1=F KeepF1=F KeepIn=T MapXYZ=F SortEE=F KeepMc=T.
          MDV=   17179868692 using IRadAn=       2.
 Generate precomputed XC quadrature information.
 Keep R1 ints in memory in canonical form, NReq=3311077877.
 FoFCou: FMM=F IPFlag=           0 FMFlag=           0 FMFlg1=           0
         NFxFlg=           0 DoJE=F BraDBF=F KetDBF=F FulRan=T
         wScrn=  0.000000 ICntrl=     600 IOpCl=  0 I1Cent=           0 NGrid=           0
         NMat0=    1 NMatS0=  57291 NMatT0=    0 NMatD0=    1 NMtDS0=    0 NMtDT0=    0
 Symmetry not used in FoFCou.
          Solving linear equations simultaneously, MaxMat=       0.
          There are    48 degrees of freedom in the 1st order CPHF.  IDoFFX=6 NUNeed=     0.
     42 vectors produced by pass  0 Test12= 1.92D-14 2.08D-09 XBig12= 6.83D-02 7.58D-02.
 AX will form    42 AO Fock derivatives at one time.
     42 vectors produced by pass  1 Test12= 1.92D-14 2.08D-09 XBig12= 5.85D-03 2.19D-02.
     42 vectors produced by pass  2 Test12= 1.92D-14 2.08D-09 XBig12= 2.11D-04 3.04D-03.
     42 vectors produced by pass  3 Test12= 1.92D-14 2.08D-09 XBig12= 2.74D-06 4.27D-04.
     42 vectors produced by pass  4 Test12= 1.92D-14 2.08D-09 XBig12= 2.94D-08 5.14D-05.
     42 vectors produced by pass  5 Test12= 1.92D-14 2.08D-09 XBig12= 2.66D-10 3.75D-06.
     42 vectors produced by pass  6 Test12= 1.92D-14 2.08D-09 XBig12= 2.22D-12 2.58D-07.
     22 vectors produced by pass  7 Test12= 1.92D-14 2.08D-09 XBig12= 1.49D-14 1.32D-08.
 InvSVY:  IOpt=1 It=  1 EMax= 1.55D-15
 Solved reduced A of dimension   316 with    42 vectors.
 End of Minotr F.D. properties file   721 does not exist.
 End of Minotr F.D. properties file   722 does not exist.
 End of Minotr F.D. properties file   788 does not exist.
 Leave Link 1002 at Sat Aug 28 23:59:13 2021, MaxMem= 17179869184 cpu:      1309.3
 (Enter /public3/home/sc51754/softwares/g09e01/l601.exe)
 Copying SCF densities to generalized density rwf, IOpCl= 0 IROHF=0.

 **********************************************************************

            Population analysis using the SCF density.

 **********************************************************************

 Orbital symmetries:
       Occupied  (A) (A) (A) (A) (A) (A) (A) (A) (A) (A) (A) (A)
                 (A) (A) (A) (A) (A) (A) (A) (A) (A) (A) (A) (A)
                 (A) (A) (A) (A) (A) (A)
       Virtual   (A) (A) (A) (A) (A) (A) (A) (A) (A) (A) (A) (A)
                 (A) (A) (A) (A) (A) (A) (A) (A) (A) (A) (A) (A)
                 (A) (A) (A) (A) (A) (A) (A) (A) (A) (A) (A) (A)
                 (A) (A) (A) (A) (A) (A) (A) (A) (A) (A) (A) (A)
                 (A) (A) (A) (A) (A) (A) (A) (A) (A) (A) (A) (A)
                 (A) (A) (A) (A) (A) (A) (A) (A) (A) (A) (A) (A)
                 (A) (A) (A) (A) (A) (A) (A) (A) (A) (A) (A) (A)
                 (A) (A) (A) (A) (A) (A) (A) (A) (A) (A) (A) (A)
                 (A) (A) (A) (A) (A) (A) (A) (A) (A) (A) (A) (A)
                 (A) (A) (A) (A) (A) (A) (A) (A) (A) (A) (A) (A)
                 (A) (A) (A) (A) (A) (A) (A) (A) (A) (A) (A) (A)
                 (A) (A) (A) (A) (A) (A) (A) (A) (A) (A) (A) (A)
                 (A) (A) (A) (A) (A) (A) (A) (A) (A) (A) (A) (A)
                 (A) (A) (A) (A) (A) (A) (A) (A) (A) (A) (A) (A)
                 (A) (A) (A) (A) (A) (A) (A) (A) (A) (A) (A) (A)
                 (A) (A) (A) (A) (A) (A) (A) (A) (A) (A) (A) (A)
                 (A) (A) (A) (A) (A) (A) (A) (A) (A) (A) (A) (A)
                 (A) (A) (A) (A) (A) (A) (A) (A) (A) (A) (A) (A)
                 (A) (A) (A) (A) (A) (A) (A) (A) (A) (A) (A) (A)
                 (A) (A) (A) (A) (A) (A) (A) (A) (A) (A) (A) (A)
                 (A) (A) (A) (A) (A) (A) (A) (A) (A) (A) (A) (A)
                 (A) (A) (A) (A) (A) (A) (A) (A) (A) (A) (A) (A)
                 (A) (A) (A) (A) (A) (A) (A) (A) (A) (A) (A) (A)
                 (A) (A) (A) (A) (A) (A) (A) (A) (A) (A) (A) (A)
                 (A) (A) (A) (A) (A) (A) (A) (A) (A) (A) (A) (A)
                 (A) (A) (A) (A) (A) (A) (A) (A)
 The electronic state is 1-A.
 Alpha  occ. eigenvalues --  -18.99794 -18.95507 -14.25071 -10.22895 -10.18973
 Alpha  occ. eigenvalues --  -10.16324 -10.14130 -10.13782  -1.20281  -1.13889
 Alpha  occ. eigenvalues --   -1.08762  -0.96904  -0.90299  -0.79862  -0.76274
 Alpha  occ. eigenvalues --   -0.70375  -0.68905  -0.63065  -0.61238  -0.59022
 Alpha  occ. eigenvalues --   -0.57524  -0.55214  -0.52218  -0.50222  -0.48577
 Alpha  occ. eigenvalues --   -0.45470  -0.41801  -0.41373  -0.38348  -0.32596
 Alpha virt. eigenvalues --    0.04239   0.08330   0.09676   0.10927   0.12251
 Alpha virt. eigenvalues --    0.13925   0.15664   0.19730   0.20239   0.22910
 Alpha virt. eigenvalues --    0.23555   0.24680   0.25766   0.26502   0.28076
 Alpha virt. eigenvalues --    0.28549   0.29589   0.30573   0.32805   0.34546
 Alpha virt. eigenvalues --    0.36154   0.37433   0.38052   0.38389   0.39305
 Alpha virt. eigenvalues --    0.41048   0.41280   0.42451   0.44614   0.45059
 Alpha virt. eigenvalues --    0.46588   0.47593   0.48983   0.49696   0.51263
 Alpha virt. eigenvalues --    0.51916   0.53023   0.55109   0.56491   0.56800
 Alpha virt. eigenvalues --    0.60172   0.62482   0.63032   0.64929   0.67942
 Alpha virt. eigenvalues --    0.69396   0.72497   0.73492   0.74605   0.74974
 Alpha virt. eigenvalues --    0.76276   0.78085   0.78862   0.83758   0.85493
 Alpha virt. eigenvalues --    0.88414   0.90669   0.92657   0.93915   0.95960
 Alpha virt. eigenvalues --    1.00137   1.01949   1.03051   1.04924   1.06009
 Alpha virt. eigenvalues --    1.08300   1.09345   1.11567   1.15148   1.17797
 Alpha virt. eigenvalues --    1.19312   1.20145   1.23013   1.25442   1.25827
 Alpha virt. eigenvalues --    1.26583   1.27569   1.28476   1.30284   1.32837
 Alpha virt. eigenvalues --    1.34084   1.36157   1.38264   1.38710   1.39918
 Alpha virt. eigenvalues --    1.42970   1.44499   1.46635   1.50532   1.53835
 Alpha virt. eigenvalues --    1.54900   1.57181   1.59400   1.60162   1.62786
 Alpha virt. eigenvalues --    1.63199   1.64657   1.67038   1.68874   1.71189
 Alpha virt. eigenvalues --    1.71870   1.73711   1.76556   1.79323   1.79718
 Alpha virt. eigenvalues --    1.81281   1.83817   1.85933   1.87479   1.92183
 Alpha virt. eigenvalues --    1.94267   1.94759   1.98464   1.99068   1.99711
 Alpha virt. eigenvalues --    2.01616   2.03005   2.07219   2.10812   2.13694
 Alpha virt. eigenvalues --    2.15303   2.18843   2.19878   2.20949   2.23349
 Alpha virt. eigenvalues --    2.25175   2.27572   2.29597   2.33948   2.34348
 Alpha virt. eigenvalues --    2.35472   2.40421   2.41050   2.41751   2.46964
 Alpha virt. eigenvalues --    2.49055   2.60873   2.70564   2.75675   2.88945
 Alpha virt. eigenvalues --    2.95143   2.97408   2.99957   3.06183   3.06376
 Alpha virt. eigenvalues --    3.24413   3.27712   3.27835   3.30308   3.32141
 Alpha virt. eigenvalues --    3.33211   3.36814   3.37465   3.41682   3.45324
 Alpha virt. eigenvalues --    3.47726   3.48739   3.53202   3.55182   3.56159
 Alpha virt. eigenvalues --    3.56885   3.60623   3.62895   3.67312   3.69484
 Alpha virt. eigenvalues --    3.70212   3.72791   3.73408   3.74055   3.76109
 Alpha virt. eigenvalues --    3.77406   3.80087   3.81901   3.86637   3.87607
 Alpha virt. eigenvalues --    3.90469   3.91298   3.96610   4.00399   4.01082
 Alpha virt. eigenvalues --    4.04155   4.06764   4.08036   4.08760   4.14510
 Alpha virt. eigenvalues --    4.15508   4.16241   4.18454   4.19095   4.19941
 Alpha virt. eigenvalues --    4.21981   4.22781   4.25974   4.26736   4.27607
 Alpha virt. eigenvalues --    4.29135   4.31365   4.31851   4.34268   4.35060
 Alpha virt. eigenvalues --    4.35664   4.36475   4.38717   4.40362   4.42391
 Alpha virt. eigenvalues --    4.43168   4.44790   4.45735   4.46038   4.47548
 Alpha virt. eigenvalues --    4.49559   4.52572   4.52761   4.53789   4.55699
 Alpha virt. eigenvalues --    4.57750   4.57897   4.59084   4.59774   4.61581
 Alpha virt. eigenvalues --    4.63537   4.65376   4.67906   4.69331   4.69805
 Alpha virt. eigenvalues --    4.73377   4.74745   4.77967   4.81204   4.85166
 Alpha virt. eigenvalues --    4.86311   4.90527   4.93781   4.94358   4.98396
 Alpha virt. eigenvalues --    4.99418   5.02114   5.04006   5.06451   5.09253
 Alpha virt. eigenvalues --    5.11761   5.14913   5.16077   5.17616   5.22387
 Alpha virt. eigenvalues --    5.24196   5.27728   5.30088   5.33394   5.35917
 Alpha virt. eigenvalues --    5.38266   5.39399   5.44086   5.44356   5.46672
 Alpha virt. eigenvalues --    5.47957   5.52502   5.53564   5.54483   5.60834
 Alpha virt. eigenvalues --    5.61174   5.63237   5.63710   5.67033   5.69796
 Alpha virt. eigenvalues --    5.72435   5.75876   5.76624   5.82088   5.87032
 Alpha virt. eigenvalues --    5.87911   5.92980   5.93261   6.06711   6.12081
 Alpha virt. eigenvalues --    6.14344   6.17824   6.24062   6.25476   6.29313
 Alpha virt. eigenvalues --    6.38699   6.41102   6.45567   6.47735   6.55273
 Alpha virt. eigenvalues --    6.61248   6.61483   6.62553   6.66265   6.75005
 Alpha virt. eigenvalues --    6.81083   6.84793   6.89450   6.93154   7.16361
 Alpha virt. eigenvalues --    7.22489   7.27205   7.42383   7.63042   7.90281
 Alpha virt. eigenvalues --    9.51012  12.21893  13.20096  15.47857  17.42906
 Alpha virt. eigenvalues --   18.54336  18.76943  22.66218
          Condensed to atoms (all electrons):
               1          2          3          4          5          6
     1  O    8.303288  -0.098760   0.415308  -0.077337   0.005621   0.006879
     2  N   -0.098760   6.859408   0.448532  -0.023075   0.432038  -0.027808
     3  C    0.415308   0.448532   4.293313   0.525227  -0.057425  -0.043419
     4  C   -0.077337  -0.023075   0.525227   4.785773  -0.038398   0.546473
     5  C    0.005621   0.432038  -0.057425  -0.038398   4.523832  -0.064854
     6  C    0.006879  -0.027808  -0.043419   0.546473  -0.064854   4.666134
     7  C    0.000742  -0.031510  -0.041140  -0.050556   0.572173   0.479273
     8  H    0.211256  -0.000534  -0.011876   0.003061  -0.000127  -0.000629
     9  H    0.002187   0.004866  -0.036286   0.455350  -0.000751  -0.035272
    10  H   -0.000580  -0.045646   0.002535  -0.002655   0.457364   0.007785
    11  H   -0.000386  -0.001575   0.007673  -0.037957   0.007848   0.444940
    12  H    0.000038   0.004170  -0.001512   0.006843  -0.031951  -0.035745
    13  O   -0.165796  -0.187728  -0.010855  -0.003771   0.004411   0.000831
    14  H    0.006597   0.006200   0.001753   0.000466  -0.000908  -0.000059
    15  H    0.002444   0.158281  -0.014444   0.001087  -0.003304  -0.001066
               7          8          9         10         11         12
     1  O    0.000742   0.211256   0.002187  -0.000580  -0.000386   0.000038
     2  N   -0.031510  -0.000534   0.004866  -0.045646  -0.001575   0.004170
     3  C   -0.041140  -0.011876  -0.036286   0.002535   0.007673  -0.001512
     4  C   -0.050556   0.003061   0.455350  -0.002655  -0.037957   0.006843
     5  C    0.572173  -0.000127  -0.000751   0.457364   0.007848  -0.031951
     6  C    0.479273  -0.000629  -0.035272   0.007785   0.444940  -0.035745
     7  C    4.848133   0.000178   0.005653  -0.051371  -0.045870   0.448749
     8  H    0.000178   0.304380   0.000459   0.000158   0.000004  -0.000005
     9  H    0.005653   0.000459   0.558559   0.000175  -0.006329   0.000055
    10  H   -0.051371   0.000158   0.000175   0.600956   0.000006  -0.004440
    11  H   -0.045870   0.000004  -0.006329   0.000006   0.591476  -0.007012
    12  H    0.448749  -0.000005   0.000055  -0.004440  -0.007012   0.582407
    13  O   -0.001783   0.217850   0.000086   0.000259  -0.000013   0.000017
    14  H    0.000151  -0.011558  -0.000013  -0.000121   0.000001  -0.000003
    15  H    0.000859  -0.013595  -0.000220  -0.002112   0.000081  -0.000032
              13         14         15
     1  O   -0.165796   0.006597   0.002444
     2  N   -0.187728   0.006200   0.158281
     3  C   -0.010855   0.001753  -0.014444
     4  C   -0.003771   0.000466   0.001087
     5  C    0.004411  -0.000908  -0.003304
     6  C    0.000831  -0.000059  -0.001066
     7  C   -0.001783   0.000151   0.000859
     8  H    0.217850  -0.011558  -0.013595
     9  H    0.000086  -0.000013  -0.000220
    10  H    0.000259  -0.000121  -0.002112
    11  H   -0.000013   0.000001   0.000081
    12  H    0.000017  -0.000003  -0.000032
    13  O    7.949129   0.357376   0.260771
    14  H    0.357376   0.430725  -0.008537
    15  H    0.260771  -0.008537   0.333624
 Mulliken charges:
               1
     1  O   -0.611501
     2  N   -0.496860
     3  C    0.522616
     4  C   -0.090531
     5  C    0.194430
     6  C    0.056536
     7  C   -0.133682
     8  H    0.300979
     9  H    0.051482
    10  H    0.037687
    11  H    0.047114
    12  H    0.038420
    13  O   -0.420783
    14  H    0.217929
    15  H    0.286164
 Sum of Mulliken charges =  -0.00000
 Mulliken charges with hydrogens summed into heavy atoms:
               1
     1  O   -0.611501
     2  N   -0.496860
     3  C    0.522616
     4  C   -0.039049
     5  C    0.232117
     6  C    0.103650
     7  C   -0.095262
    13  O    0.384290
 APT charges:
               1
     1  O   -0.442694
     2  N   -0.444922
     3  C    0.118036
     4  C   -0.482184
     5  C   -0.317146
     6  C   -0.344642
     7  C   -0.458162
     8  H    0.285433
     9  H    0.443527
    10  H    0.422313
    11  H    0.559037
    12  H    0.575253
    13  O   -0.810195
    14  H    0.699778
    15  H    0.196567
 Sum of APT charges =  -0.00000
 APT charges with hydrogens summed into heavy atoms:
               1
     1  O   -0.442694
     2  N   -0.444922
     3  C    0.118036
     4  C   -0.038657
     5  C    0.105166
     6  C    0.214396
     7  C    0.117091
    13  O    0.371583
 Electronic spatial extent (au):  <R**2>=            947.8446
 Charge=             -0.0000 electrons
 Dipole moment (field-independent basis, Debye):
    X=             -1.8445    Y=             -2.5377    Z=              1.3081  Tot=              3.3990
 Quadrupole moment (field-independent basis, Debye-Ang):
   XX=            -41.8180   YY=            -45.4570   ZZ=            -49.4507
   XY=             -5.3396   XZ=              4.5282   YZ=             -1.5107
 Traceless Quadrupole moment (field-independent basis, Debye-Ang):
   XX=              3.7572   YY=              0.1182   ZZ=             -3.8754
   XY=             -5.3396   XZ=              4.5282   YZ=             -1.5107
 Octapole moment (field-independent basis, Debye-Ang**2):
  XXX=             13.7274  YYY=            -10.9767  ZZZ=              1.0577  XYY=             -3.3482
  XXY=             -8.3197  XXZ=             14.8480  XZZ=             11.9255  YZZ=             -0.9055
  YYZ=              1.6155  XYZ=             -5.0549
 Hexadecapole moment (field-independent basis, Debye-Ang**3):
 XXXX=           -705.8192 YYYY=           -337.5119 ZZZZ=            -53.9234 XXXY=            -27.6800
 XXXZ=             48.4945 YYYX=            -19.7016 YYYZ=             -1.9729 ZZZX=              4.4471
 ZZZY=             -1.6394 XXYY=           -184.0252 XXZZ=           -147.0146 YYZZ=            -74.7641
 XXYZ=            -15.5548 YYXZ=              5.5815 ZZXY=             -4.7504
 N-N= 3.717542843730D+02 E-N=-1.679668823775D+03  KE= 3.989648997999D+02
  Exact polarizability:   0.000   0.000   0.000   0.000   0.000   0.000
 Approx polarizability:  96.483   4.389  88.207   0.726  -0.507  49.906
 No NMR shielding tensors so no spin-rotation constants.
 Leave Link  601 at Sat Aug 28 23:59:15 2021, MaxMem= 17179869184 cpu:        67.8
 (Enter /public3/home/sc51754/softwares/g09e01/l701.exe)
 Compute integral second derivatives.
 ... and contract with generalized density number  0.
 Leave Link  701 at Sat Aug 28 23:59:17 2021, MaxMem= 17179869184 cpu:        75.6
 (Enter /public3/home/sc51754/softwares/g09e01/l702.exe)
 L702 exits ... SP integral derivatives will be done elsewhere.
 Leave Link  702 at Sat Aug 28 23:59:17 2021, MaxMem= 17179869184 cpu:         1.4
 (Enter /public3/home/sc51754/softwares/g09e01/l703.exe)
 Compute integral second derivatives, UseDBF=F ICtDFT=           0.
 Integral derivatives from FoFJK, PRISM(SPDF).
 Calling FoFJK, ICntrl=    100147 FMM=F ISym2X=0 I1Cent= 0 IOpClX= 0 NMat=1 NMatS=1 NMatT=0.
 FoFJK:  IHMeth= 1 ICntrl=  100147 DoSepK=T KAlg= 0 I1Cent=   0 FoldK=F
 IRaf=         1 NMat=   1 IRICut=       1 DoRegI=T DoRafI=F ISym2E= 0.
 FoFCou: FMM=F IPFlag=           0 FMFlag=      100000 FMFlg1=         800
         NFxFlg=           0 DoJE=F BraDBF=F KetDBF=F FulRan=T
         wScrn=  0.000000 ICntrl=  100547 IOpCl=  0 I1Cent=           0 NGrid=           0
         NMat0=    1 NMatS0=      1 NMatT0=    0 NMatD0=    1 NMtDS0=    0 NMtDT0=    0
 Symmetry not used in FoFCou.
 Leave Link  703 at Sat Aug 28 23:59:46 2021, MaxMem= 17179869184 cpu:      1818.8
 (Enter /public3/home/sc51754/softwares/g09e01/l716.exe)
 Dipole        =-7.25667314D-01-9.98407794D-01 5.14633418D-01
 Polarizability= 0.00000000D+00 0.00000000D+00 0.00000000D+00
                 0.00000000D+00 0.00000000D+00 0.00000000D+00
 ***** Axes restored to original set *****
 -------------------------------------------------------------------
 Center     Atomic                   Forces (Hartrees/Bohr)
 Number     Number              X              Y              Z
 -------------------------------------------------------------------
      1        8          -0.036620992   -0.012948264   -0.001118254
      2        7          -0.042337690   -0.014057726    0.001159823
      3        6           0.039995101    0.058016260    0.000202778
      4        6          -0.019594016   -0.007971199    0.000095688
      5        6          -0.011600119   -0.009338163    0.000008713
      6        6           0.003921318    0.011857268    0.000015545
      7        6           0.007757007   -0.009691791   -0.000070677
      8        1          -0.011114505    0.027472503    0.006077939
      9        1           0.001873187   -0.000955281   -0.000000181
     10        1          -0.000019086    0.000290243   -0.000043085
     11        1          -0.000488249   -0.000296978   -0.000006550
     12        1           0.000869585   -0.000343815   -0.000024879
     13        8           0.066926576   -0.043697141   -0.002459545
     14        1           0.005919357    0.005772023    0.000191423
     15        1          -0.005487476   -0.004107939   -0.004028736
 -------------------------------------------------------------------
 Cartesian Forces:  Max     0.066926576 RMS     0.019375523
 FormGI is forming the generalized inverse of G from B-inverse, IUseBI=4.
 Leave Link  716 at Sat Aug 28 23:59:46 2021, MaxMem= 17179869184 cpu:        10.4
 (Enter /public3/home/sc51754/softwares/g09e01/l103.exe)

 GradGradGradGradGradGradGradGradGradGradGradGradGradGradGradGradGradGrad
 Berny optimization.
 Red2BG is reusing G-inverse.
 Internal  Forces:  Max     0.037211200 RMS     0.009980731
 Search for a saddle point.
 Step number   1 out of a maximum of  100
 All quantities printed in internal units (Hartrees-Bohrs-Radians)
 Second derivative matrix not updated -- analytic derivatives used.
 ITU=  0
 LST/QST climbing along tangent vector
     Eigenvalues ---   -0.01057  -0.00012   0.00436   0.00558   0.00854
     Eigenvalues ---    0.01258   0.01755   0.01908   0.02128   0.02380
     Eigenvalues ---    0.02874   0.03220   0.03580   0.04377   0.04782
     Eigenvalues ---    0.05708   0.07454   0.10277   0.10869   0.12086
     Eigenvalues ---    0.13150   0.15349   0.19858   0.20380   0.21732
     Eigenvalues ---    0.26272   0.28387   0.30179   0.36271   0.36451
     Eigenvalues ---    0.36954   0.37341   0.37657   0.43973   0.45164
     Eigenvalues ---    0.48963   0.51131   0.55547   0.565011000.00000
     Eigenvalues --- 1000.000001000.000001000.000001000.000001000.00000
     Eigenvalues --- 1000.000001000.000001000.000001000.000001000.00000
     Eigenvalues --- 1000.000001000.000001000.000001000.000001000.00000
     Eigenvalues --- 1000.000001000.000001000.000001000.000001000.00000
     Eigenvalues --- 1000.000001000.000001000.000001000.000001000.00000
     Eigenvalues --- 1000.000001000.000001000.000001000.000001000.00000
     Eigenvalues --- 1000.000001000.000001000.000001000.000001000.00000
     Eigenvalues --- 1000.000001000.000001000.000001000.000001000.00000
     Eigenvalues --- 1000.00000
 Eigenvectors required to have negative eigenvalues:
                          R5        R14       R17       R2        A21
   1                    0.50053   0.46263  -0.44625  -0.40129   0.24163
                          A25       A24       D33       A22       A4
   1                   -0.22068  -0.14135   0.13857   0.08972   0.06144
 Eigenvalue     2 is  -1.18D-04 should be greater than     0.000000 Eigenvector:
                          D33       D38       D36       A22       A24
   1                    0.57717  -0.51239  -0.38447  -0.31143  -0.24027
                          D34       D3        R15       D37       R2
   1                    0.16376  -0.15341  -0.10310  -0.08446   0.07538
 QST in optimization variable space.
                        Tangent   TS vect  // Eig F  Eigenval
   1         R1        -0.05306   0.05306   0.00914  -0.01057
   2         R2         0.40129  -0.40129   0.00050  -0.00012
   3         R3         0.02580  -0.02580   0.00017   0.00436
   4         R4         0.00949  -0.00949  -0.00052   0.00558
   5         R5        -0.50053   0.50053  -0.00097   0.00854
   6         R6         0.01941  -0.01941  -0.00005   0.01258
   7         R7        -0.00956   0.00956   0.00000   0.01755
   8         R8         0.00003  -0.00003  -0.00002   0.01908
   9         R9        -0.01048   0.01048  -0.00000   0.02128
  10         R10       -0.00130   0.00130  -0.00005   0.02380
  11         R11        0.01242  -0.01242  -0.00001   0.02874
  12         R12        0.00020  -0.00020  -0.00009   0.03220
  13         R13       -0.00071   0.00071   0.00016   0.03580
  14         R14       -0.46263   0.46263  -0.00282   0.04377
  15         R15       -0.00141   0.00141   0.00078   0.04782
  16         R16       -0.00048   0.00048   0.00454   0.05708
  17         R17        0.44625  -0.44625   0.00441   0.07454
  18         A1        -0.02064   0.02064  -0.00030   0.10277
  19         A2         0.02299  -0.02299   0.00142   0.10869
  20         A3         0.03845  -0.03845  -0.00071   0.12086
  21         A4        -0.06144   0.06144   0.00084   0.13150
  22         A5         0.00269  -0.00269  -0.01093   0.15349
  23         A6         0.03036  -0.03036   0.00144   0.19858
  24         A7        -0.03305   0.03305   0.01159   0.20380
  25         A8         0.01182  -0.01182  -0.00085   0.21732
  26         A9        -0.01112   0.01112   0.02358   0.26272
  27         A10       -0.00070   0.00070  -0.01175   0.28387
  28         A11       -0.00869   0.00869   0.02508   0.30179
  29         A12       -0.00094   0.00094   0.00708   0.36271
  30         A13        0.00963  -0.00963  -0.00503   0.36451
  31         A14        0.00629  -0.00629  -0.00308   0.36954
  32         A15       -0.00159   0.00159  -0.00338   0.37341
  33         A16       -0.00470   0.00470   0.00316   0.37657
  34         A17        0.00064  -0.00064  -0.00791   0.43973
  35         A18       -0.00033   0.00033  -0.00066   0.45164
  36         A19       -0.00031   0.00031   0.01179   0.48963
  37         A20       -0.03878   0.03878   0.00349   0.51131
  38         A21       -0.24163   0.24163   0.00138   0.55547
  39         A22       -0.08972   0.08972   0.00635   0.56501
  40         A23        0.00735  -0.00735   0.000001000.00000
  41         A24        0.14135  -0.14135  -0.000001000.00000
  42         A25        0.22068  -0.22068  -0.000001000.00000
  43         A26        0.01038  -0.01038   0.000001000.00000
  44         D1         0.00604  -0.00604   0.000001000.00000
  45         D2         0.00591  -0.00591   0.000001000.00000
  46         D3        -0.00518   0.00518  -0.000001000.00000
  47         D4        -0.00624   0.00624   0.000001000.00000
  48         D5         0.00048  -0.00048   0.000001000.00000
  49         D6         0.00061  -0.00061  -0.000001000.00000
  50         D7         0.00342  -0.00342  -0.000001000.00000
  51         D8         0.00354  -0.00354   0.000001000.00000
  52         D9        -0.00033   0.00033  -0.000001000.00000
  53         D10       -0.00040   0.00040   0.000001000.00000
  54         D11       -0.00461   0.00461  -0.000001000.00000
  55         D12       -0.00467   0.00467   0.000001000.00000
  56         D13       -0.01261   0.01261   0.000001000.00000
  57         D14       -0.00832   0.00832  -0.000001000.00000
  58         D15       -0.00868   0.00868  -0.000001000.00000
  59         D16       -0.00439   0.00439  -0.000001000.00000
  60         D17       -0.00044   0.00044  -0.000001000.00000
  61         D18       -0.00039   0.00039   0.000001000.00000
  62         D19       -0.00056   0.00056   0.000001000.00000
  63         D20       -0.00052   0.00052   0.000001000.00000
  64         D21        0.00025  -0.00025  -0.000001000.00000
  65         D22        0.00020  -0.00020  -0.000001000.00000
  66         D23        0.00019  -0.00019  -0.000001000.00000
  67         D24        0.00015  -0.00015  -0.000001000.00000
  68         D25       -0.00003   0.00003  -0.000001000.00000
  69         D26       -0.00006   0.00006  -0.000001000.00000
  70         D27        0.00004  -0.00004   0.000001000.00000
  71         D28        0.00002  -0.00002   0.000001000.00000
  72         D29        0.00005  -0.00005  -0.000001000.00000
  73         D30        0.00007  -0.00007  -0.000001000.00000
  74         D31        0.00009  -0.00009  -0.000001000.00000
  75         D32        0.00012  -0.00012  -0.000001000.00000
  76         D33       -0.13857   0.13857  -0.000001000.00000
  77         D34        0.00651  -0.00651   0.000001000.00000
  78         D35        0.01286  -0.01286  -0.000001000.00000
  79         D36        0.05834  -0.05834   0.000001000.00000
  80         D37        0.01282  -0.01282   0.000001000.00000
  81         D38       -0.04423   0.04423  -0.000001000.00000
 RFO step:  Lambda0=5.270776157D-03 Lambda=-7.61911910D-03.
 Linear search not attempted -- option 19 set.
 Maximum step size (   0.300) exceeded in Quadratic search.
    -- Step size scaled by   0.412
 Iteration  1 RMS(Cart)=  0.03315036 RMS(Int)=  0.00318561
 Iteration  2 RMS(Cart)=  0.00210353 RMS(Int)=  0.00135196
 Iteration  3 RMS(Cart)=  0.00001021 RMS(Int)=  0.00135192
 Iteration  4 RMS(Cart)=  0.00000004 RMS(Int)=  0.00135192
 ITry= 1 IFail=0 DXMaxC= 1.28D-01 DCOld= 1.00D+10 DXMaxT= 3.00D-01 DXLimC= 3.00D+00 Rises=F
 Variable       Old X    -DE/DX   Delta X   Delta X   Delta X     New X
                                 (Linear)    (Quad)   (Total)
    R1        2.52803  -0.02726   0.00000  -0.03737  -0.03835   2.48968
    R2        2.28508   0.02158   0.00000   0.11939   0.11985   2.40494
    R3        2.50793   0.02614   0.00000   0.01683   0.01574   2.52367
    R4        2.53357   0.00731   0.00000   0.00429   0.00430   2.53788
    R5        2.38587   0.03667   0.00000  -0.11485  -0.11465   2.27122
    R6        2.65036   0.01002   0.00000   0.01172   0.01171   2.66207
    R7        2.59681  -0.00333   0.00000  -0.00584  -0.00585   2.59095
    R8        2.04441  -0.00107   0.00000   0.00000   0.00000   2.04442
    R9        2.60099  -0.00841   0.00000  -0.00703  -0.00701   2.59398
   R10        2.05178  -0.00029   0.00000  -0.00076  -0.00076   2.05101
   R11        2.64146   0.00995   0.00000   0.00804   0.00805   2.64951
   R12        2.04936   0.00033   0.00000   0.00021   0.00021   2.04957
   R13        2.04447  -0.00047   0.00000  -0.00051  -0.00051   2.04395
   R14        2.07870   0.03721   0.00000  -0.08768  -0.08608   1.99261
   R15        3.02213   0.01266   0.00000  -0.02866  -0.02911   2.99303
   R16        1.80954   0.00149   0.00000   0.00283   0.00283   1.81237
   R17        2.07870   0.02855   0.00000   0.14743   0.14822   2.22692
    A1        1.78301   0.01310   0.00000   0.00099   0.00103   1.78404
    A2        2.05877   0.00748   0.00000   0.01731   0.01732   2.07608
    A3        1.84499  -0.00457   0.00000   0.00779   0.00759   1.85258
    A4        2.37942  -0.00290   0.00000  -0.02511  -0.02494   2.35449
    A5        2.07915   0.00301   0.00000  -0.00434  -0.00538   2.07376
    A6        2.05814   0.01182   0.00000   0.02681   0.02743   2.08557
    A7        2.14590  -0.01483   0.00000  -0.02246  -0.02205   2.12385
    A8        2.06028   0.00404   0.00000   0.00679   0.00665   2.06693
    A9        2.08120  -0.00388   0.00000  -0.00687  -0.00680   2.07440
   A10        2.14171  -0.00016   0.00000   0.00008   0.00015   2.14186
   A11        2.15801  -0.00298   0.00000  -0.00691  -0.00699   2.15102
   A12        2.01792   0.00147   0.00000   0.00039   0.00043   2.01835
   A13        2.10726   0.00151   0.00000   0.00652   0.00656   2.11382
   A14        2.08865   0.00410   0.00000   0.00523   0.00511   2.09376
   A15        2.09347  -0.00158   0.00000  -0.00141  -0.00135   2.09212
   A16        2.10107  -0.00252   0.00000  -0.00382  -0.00376   2.09731
   A17        2.05477   0.00219   0.00000   0.00004  -0.00004   2.05472
   A18        2.10452  -0.00191   0.00000   0.00025   0.00029   2.10481
   A19        2.12390  -0.00028   0.00000  -0.00029  -0.00025   2.12365
   A20        2.68792   0.00544   0.00000   0.01694   0.01990   2.70782
   A21        1.93163  -0.00494   0.00000  -0.06256  -0.06282   1.86881
   A22        2.07149   0.00387   0.00000  -0.12580  -0.12835   1.94314
   A23        1.62768  -0.02462   0.00000  -0.05050  -0.05367   1.57401
[...]
   A13        2.13602   0.00000   0.00000  -0.00009  -0.00009   2.13593
   A14        2.10856   0.00000   0.00000  -0.00002  -0.00002   2.10855
   A15        2.08686  -0.00000   0.00000   0.00001   0.00001   2.08686
   A16        2.08777  -0.00000   0.00000   0.00001   0.00001   2.08778
   A17        2.05527   0.00000   0.00000  -0.00000  -0.00000   2.05526
   A18        2.10560  -0.00000   0.00000   0.00000   0.00000   2.10560
   A19        2.12232  -0.00000   0.00000  -0.00000  -0.00000   2.12232
   A20        2.74893   0.00002   0.00000   0.00026   0.00026   2.74920
   A21        1.89323  -0.00001   0.00000   0.00037   0.00037   1.89360
   A22        1.99516  -0.00000   0.00000  -0.00035  -0.00035   1.99481
   A23        1.42196   0.00001   0.00000   0.00018   0.00018   1.42214
   A24        2.03369  -0.00001   0.00000  -0.00122  -0.00122   2.03247
   A25        1.75701   0.00003   0.00000   0.00019   0.00019   1.75720
   A26        2.61292  -0.00001   0.00000   0.00026   0.00026   2.61318
    D1        0.00625  -0.00000   0.00000  -0.00073  -0.00073   0.00552
    D2       -3.13430  -0.00000   0.00000  -0.00082  -0.00082  -3.13512
    D3        0.10104   0.00000   0.00000  -0.00001  -0.00001   0.10103
    D4       -0.01533   0.00000   0.00000   0.00069   0.00069  -0.01464
    D5       -3.13596  -0.00000   0.00000  -0.00038  -0.00038  -3.13633
    D6        0.00463  -0.00000   0.00000  -0.00029  -0.00029   0.00434
    D7        0.00979   0.00000   0.00000   0.00033   0.00033   0.01012
    D8       -3.13281   0.00000   0.00000   0.00041   0.00041  -3.13240
    D9       -0.00310   0.00000   0.00000   0.00019   0.00019  -0.00292
   D10        3.13648   0.00000   0.00000   0.00010   0.00010   3.13658
   D11        3.13319  -0.00000   0.00000  -0.00071  -0.00071   3.13247
   D12       -0.01041  -0.00001   0.00000  -0.00080  -0.00080  -0.01121
   D13       -0.01583  -0.00000   0.00000   0.00010   0.00010  -0.01573
   D14       -0.13677   0.00001   0.00000   0.00145   0.00145  -0.13532
   D15        3.13049   0.00000   0.00000   0.00090   0.00090   3.13139
   D16        3.00955   0.00001   0.00000   0.00225   0.00225   3.01180
   D17        3.13713   0.00000   0.00000   0.00030   0.00030   3.13743
   D18       -0.00154   0.00000   0.00000   0.00019   0.00019  -0.00135
   D19       -0.00341   0.00000   0.00000   0.00021   0.00021  -0.00319
   D20        3.14111   0.00000   0.00000   0.00010   0.00010   3.14121
   D21        0.00071   0.00000   0.00000  -0.00003  -0.00003   0.00068
   D22       -3.13969  -0.00000   0.00000  -0.00009  -0.00009  -3.13978
   D23        3.13925   0.00000   0.00000   0.00008   0.00008   3.13933
   D24       -0.00116   0.00000   0.00000   0.00003   0.00003  -0.00113
   D25        0.00028  -0.00000   0.00000   0.00000   0.00000   0.00028
   D26        3.14022  -0.00000   0.00000  -0.00003  -0.00003   3.14020
   D27       -3.13917   0.00000   0.00000   0.00009   0.00009  -3.13908
   D28        0.00077   0.00000   0.00000   0.00006   0.00006   0.00083
   D29        0.00084  -0.00000   0.00000  -0.00007  -0.00007   0.00077
   D30       -3.13908  -0.00000   0.00000  -0.00004  -0.00004  -3.13912
   D31        3.14125   0.00000   0.00000  -0.00002  -0.00002   3.14123
   D32        0.00132   0.00000   0.00000   0.00001   0.00001   0.00134
   D33       -2.15873   0.00000   0.00000   0.00215   0.00215  -2.15658
   D34       -0.14596  -0.00000   0.00000   0.00088   0.00088  -0.14508
   D35        0.02163   0.00000   0.00000  -0.00055  -0.00055   0.02108
   D36        1.61443   0.00001   0.00000  -0.00054  -0.00054   1.61389
   D37        0.15700  -0.00001   0.00000  -0.00176  -0.00176   0.15524
   D38        2.12894  -0.00000   0.00000  -0.00212  -0.00212   2.12682
         Item               Value     Threshold  Converged?
 Maximum Force            0.000089     0.000450     YES
 RMS     Force            0.000014     0.000300     YES
 Maximum Displacement     0.003182     0.001800     NO 
 RMS     Displacement     0.000691     0.001200     YES
 Predicted change in Energy=-1.033016D-07
 GradGradGradGradGradGradGradGradGradGradGradGradGradGradGradGradGradGrad

 Leave Link  103 at Sun Aug 29 00:07:35 2021, MaxMem= 17179869184 cpu:        55.3
 (Enter /public3/home/sc51754/softwares/g09e01/l9999.exe)
 1\1\GINC-J2314\Freq\RwB97\Gen\C5H7N1O2\SC51754\29-Aug-2021\0\\#P Geom=
 AllCheck Guess=TCheck SCRF=Check GenChk RwB97/ChkBas Freq\\HY_H2O_wB97
 _PC2_OPT_FREQ\\0,1\O,1.3195147868,1.4022959694,-0.0004270749\N,0.37002
 6198,-0.6560376795,-0.0019497213\C,0.2428668801,0.6899703934,0.0012147
 28\C,-1.054129013,1.2585077696,0.0049101794\C,-0.7046635873,-1.4650733
 366,-0.0069724143\C,-2.140049649,0.4282047232,0.0010921004\C,-1.978289
 0573,-0.9718922093,-0.0055395696\H,2.1985172667,0.6465355888,-0.011515
 6776\H,-1.1416942574,2.3365873024,0.0078799286\H,-0.4937938381,-2.5283
 286867,-0.0141620396\H,-3.1382896935,0.852546836,0.002071623\H,-2.8278
 618538,-1.6401932059,-0.0109298399\O,2.7777006625,-0.4945666719,-0.072
 9586634\H,3.3431824749,-0.6901386767,0.6738779833\H,1.5670508404,-0.90
 02929362,0.0055124277\\Version=EM64L-G09RevE.01\State=1-A\HF=-400.0263
 637\RMSD=2.044e-09\RMSF=2.735e-05\ZeroPoint=0.1137708\Thermal=0.120343
 2\Dipole=-1.311227,-0.6684148,0.5294896\DipoleDeriv=-1.9995091,-0.3536
 581,-0.0108398,-0.175947,-0.9035445,0.0005011,-0.0118683,0.0016116,-0.
 3522306,-1.3958029,0.204386,-0.0053231,-0.4907607,-0.4738752,-0.000471
 4,-0.0368051,0.0014916,-0.1689573,1.8187562,0.8433497,0.0059722,0.6976
 448,0.6592912,0.000241,-0.0045121,-0.0035501,0.2466976,-0.7208734,-0.5
 505123,-0.0039658,0.0917194,-0.0158292,-0.0002643,0.0070749,-0.0011046
 ,-0.1885164,0.6316351,-0.3663855,0.0002185,0.2975683,0.2294124,0.00629
 51,0.0006046,0.004319,0.0150631,0.2944194,0.1425653,0.0011721,0.103611
 7,0.6520672,0.0031866,-0.0003667,0.00254,-0.0542954,-0.2954569,0.40330
 28,0.0012739,0.0536236,-0.5328933,-0.0008179,0.0049925,-0.0001329,-0.2
 053555,1.1703905,-0.4455337,-0.0050606,-0.9725164,0.7359696,-0.0232298
 ,-0.0138369,-0.016704,0.2231882,0.0692662,-0.0051445,-0.0001838,0.0086
 77,-0.0075294,-0.0006709,0.0004313,-0.0001127,0.1555188,0.0673901,0.02
 51467,-0.0005464,-0.0117769,-0.0330687,-0.0003633,-0.0021917,-0.001389
 ,0.128085,-0.0340192,0.0569577,0.0000562,0.0571858,0.0667187,-0.000274
 5,-0.0008308,-0.0000406,0.1243798,0.0051868,-0.0564093,-0.0007737,-0.0
 549915,0.0166456,-0.0007871,-0.0008354,-0.0010095,0.1624547,-1.8440069
 ,0.2215722,0.0388014,0.3362214,-0.8453759,-0.0178375,0.1046141,-0.0322
 717,-0.4537913,0.2749915,0.0054628,-0.0406741,-0.0077779,0.2783488,0.0
 156115,-0.0615466,0.0258754,0.1784426,1.9576326,-0.1250999,0.0198729,0
 .0675184,0.1736628,0.0188813,0.0150763,0.0204774,0.1893166\Polar=101.5
 732722,3.2893381,82.8109972,1.1417479,-0.1665987,43.817258\PG=C01 [X(C
 5H7N1O2)]\NImag=1\\0.46209583,0.14117495,0.36800246,-0.00195515,-0.000
 22225,0.05771249,0.03319591,-0.05858317,0.00039296,0.63892477,-0.04131
 435,-0.06191290,-0.00029326,0.11255814,0.66713388,0.00131696,-0.000438
 72,0.01503999,0.00147642,0.00215809,0.11109494,-0.32723880,-0.14124689
 ,0.00098782,-0.19533716,0.01326966,-0.00148852,0.81231969,-0.13970797,
 -0.21135571,0.00082872,0.05380728,-0.28326142,-0.00103950,0.04254768,0
 .69026803,-0.00006885,-0.00006226,-0.06998837,-0.00009740,-0.00055753,
 -0.07781675,-0.00026659,0.00121621,0.20880568,-0.08066786,0.00438238,0
 .00001015,0.04221301,0.07730273,0.00072100,-0.23130306,0.04395658,0.00
 016986,0.68839069,-0.03151876,0.02179456,0.00009782,0.03757055,-0.0188
 0378,-0.00005884,0.10117517,-0.16954297,-0.00055279,0.05237172,0.79979
 025,0.00031349,0.00050223,0.01426307,-0.00009187,-0.00002169,0.0146375
 7,0.00054102,-0.00093260,-0.08016612,-0.00002709,0.00239864,0.12323163
 ,-0.01805960,0.01285911,-0.00013831,-0.27726454,-0.07804425,-0.0002566
 5,0.07231869,-0.09268691,-0.00032872,-0.08321740,-0.00537263,-0.000056
 03,0.74038127,-0.00204850,0.00119463,-0.00009202,-0.12088957,-0.217242
 75,-0.00052622,-0.01913823,-0.06204605,-0.00016943,-0.01554521,-0.0028
 7722,-0.00000059,-0.05460392,0.78903626,-0.00010609,0.00008789,0.00865
 223,-0.00085705,-0.00088663,-0.05973802,0.00000788,-0.00024380,-0.0017
 9763,-0.00015052,0.00007354,-0.00401004,0.00040174,0.00362773,0.159117
 72,0.00722752,0.00476508,0.00004337,-0.01477032,-0.02004354,-0.0002670
 2,-0.05621608,-0.00095970,0.00004141,-0.31690741,-0.16825985,-0.000733
 88,0.02466107,0.03950222,0.00025568,0.78719653,0.02938702,-0.00541938,
 0.00007859,-0.04752982,-0.07026545,-0.00050271,-0.05953986,0.07856848,
 0.00040057,-0.09516953,-0.24415879,-0.00067950,0.10331553,-0.00600241,
 -0.00002999,0.00266234,0.68174597,0.00010773,-0.00004013,0.00464478,-0
 .00015239,-0.00030620,-0.00737159,-0.00027340,0.00039327,0.00088510,-0
 .00055813,-0.00083099,-0.05969000,0.00047878,-0.00001568,0.00824744,0.
 00034968,0.00237161,0.15192792,0.00880630,-0.00712853,0.00005477,-0.08
 107465,-0.05708658,-0.00050047,-0.03784202,0.05392684,0.00018573,0.055
 63965,-0.02307190,-0.00007797,-0.35847157,0.13241718,0.00032496,-0.135
 90448,-0.01872452,-0.00017453,0.78694690,-0.02212646,0.00036674,-0.000
 07768,0.01318575,0.06481352,0.00047251,0.04930354,-0.04552167,-0.00024
 395,-0.07262713,-0.03363683,-0.00021349,0.05441545,-0.18094827,-0.0005
 7787,0.05682773,-0.30764181,-0.00113354,0.04264344,0.68672884,-0.00009
 871,0.00008099,-0.00073710,-0.00016942,0.00015778,0.01724186,0.0002350
 6,-0.00020614,-0.00883201,-0.00026943,-0.00026048,0.00831406,-0.000126
 77,-0.00039471,-0.06997352,0.00016319,-0.00129141,-0.06558464,0.001171
 08,0.00311531,0.12520465,-0.01174004,-0.00207047,-0.00110766,-0.017727
 66,0.01502465,-0.00112081,-0.06869012,-0.02239761,0.00034541,0.0133648
 6,0.00214525,0.00011438,0.00306364,0.00282328,-0.00001512,-0.00271043,
 -0.00692119,-0.00001444,-0.00218329,0.00566178,0.00011452,0.07326830,-
 0.02950451,-0.06166437,0.00041094,0.01951824,-0.01458033,0.00130989,0.
 02488585,0.05273774,0.00007928,-0.01994360,-0.00703986,-0.00007800,-0.
 00603302,-0.00504330,-0.00007813,0.00264857,0.01085496,0.00001429,0.00
 464835,-0.00784874,-0.00010412,0.05994227,0.03618550,0.00153342,-0.001
 58814,-0.03696029,-0.00091920,0.00000807,-0.00177858,-0.00053065,-0.00
 020240,0.00182113,0.00014177,-0.00002939,0.00376754,0.00003173,0.00008
 383,-0.00078130,-0.00007339,-0.00011126,0.00088644,-0.00011009,0.00007
 210,0.00031913,0.00451982,0.00515145,0.06582288,0.00234345,-0.00202771
 ,-0.00001674,-0.00637333,0.00422790,-0.00002348,0.00434980,0.02934953,
 0.00007429,-0.06101310,0.02679494,0.00012811,-0.00212634,-0.00108908,-
 0.00000559,0.00767879,-0.02623262,-0.00007173,-0.00346742,-0.00276820,
 -0.00001421,-0.00078389,0.00089924,-0.00001631,0.05670226,-0.00037099,
 0.00128290,0.00001330,0.00268361,-0.00063153,-0.00000278,-0.00403232,-
 0.00840941,-0.00000413,0.02919195,-0.35475487,-0.00096950,0.00060742,0
 .00101000,0.00000886,0.00409125,-0.01124891,-0.00003225,-0.00336878,0.
 00073330,-0.00001976,0.00042918,-0.00038012,0.00000556,-0.02853687,0.3
 7213209,0.00000402,-0.00001538,-0.00246099,0.00001562,-0.00005129,0.00
 523012,-0.00006087,-0.00000325,0.00275826,0.00015687,-0.00085064,-0.03
 424702,0.00003298,0.00001609,-0.00047434,-0.00000851,-0.00011480,0.002
 62875,-0.00003963,-0.00003452,0.00919824,-0.00002010,0.00001652,-0.000
 37177,-0.00009189,0.00101969,0.02426639,-0.00088174,-0.00145096,0.0000
 0009,0.00579378,-0.03341484,-0.00019027,-0.00315478,-0.00177556,-0.000
 01521,-0.00063281,-0.00062287,-0.00000058,-0.07539213,0.06521432,0.000
 37199,-0.00558924,0.00186437,-0.00000876,0.00265000,0.02736195,0.00017
 473,0.00084361,-0.00079399,0.00000797,0.00014819,0.00000397,-0.0000007
 2,0.07504334,-0.00048931,-0.00137155,0.00000855,-0.00114901,-0.0196561
 9,-0.00015605,-0.00291053,0.00251939,-0.00009515,0.00030295,0.00053330
 ,0.00000840,0.06032653,-0.33587430,-0.00194503,0.00196982,0.00031988,-
 0.00005953,-0.00142294,-0.00407351,-0.00009407,0.00044816,-0.00035473,
 -0.00000016,0.00006991,-0.00007219,0.00000910,-0.05785801,0.35777554,0
 .00001256,-0.00003241,-0.00003093,0.00011460,-0.00000203,0.00089747,-0
 .00001018,-0.00003793,0.00799126,-0.00000556,0.00000789,-0.00042418,0.
 00028008,-0.00219369,-0.04320400,-0.00002923,-0.00000567,0.00821243,0.
 00002867,-0.00001725,0.00816910,-0.00004406,0.00003327,-0.00010322,-0.
 00000338,0.00000350,-0.00135232,-0.00030559,0.00225629,0.02685571,-0.0
 0173237,0.00070740,0.00001027,0.00011594,-0.00085075,0.00000224,-0.001
 77795,-0.00340970,-0.00003222,-0.01666120,0.01246619,0.00001490,0.0017
 4150,0.00052919,-0.00000787,-0.30578530,0.10348073,0.00027752,0.001464
 92,-0.00126529,-0.00002094,0.00034349,-0.00063294,-0.00000565,0.001013
 53,-0.00026228,0.00000635,-0.00005015,-0.00010062,0.00000116,0.3209524
 6,-0.00076497,0.00077934,0.00001217,-0.00110592,-0.00026238,-0.0000021
 9,-0.00376485,-0.00227234,-0.00005356,-0.01853941,0.01214757,0.0000000
 3,0.00060691,-0.00650462,-0.00006057,0.10464234,-0.10659249,-0.0002021
 6,0.02897027,-0.00475251,-0.00001570,0.00003061,-0.00028348,-0.0000002
 1,0.00057857,0.00071306,0.00002444,0.00147201,-0.00035785,0.00000756,-
 0.11141051,0.10613761,-0.00002952,-0.00004264,-0.00124618,0.00001633,-
 0.00000474,-0.00186173,-0.00001393,-0.00001152,0.01144545,-0.00005954,
 0.00007811,0.00698239,0.00001240,-0.00008141,0.00632016,0.00021393,-0.
 00021662,-0.04517571,0.00012716,-0.00003681,0.00570155,-0.00002031,0.0
 0001337,-0.00042517,-0.00000016,0.00000886,-0.00546682,0.00000616,0.00
 000127,-0.00064599,-0.00026762,0.00026784,0.02777580,0.00059603,-0.000
 20040,0.00000836,-0.00556649,0.00327907,-0.00001324,-0.00047661,0.0012
 3653,-0.00000757,0.00102275,0.00158703,-0.00000371,-0.01521683,-0.0213
 8554,-0.00017979,0.00842080,0.00554786,0.00003557,-0.24305559,-0.14357
 315,-0.00115251,-0.00020895,0.00045338,-0.00001511,0.00027022,0.000282
 94,-0.00000139,0.00062456,0.00034685,0.00001590,0.00049385,-0.00063679
 ,0.00000782,0.25249609,-0.00040604,0.00050191,0.00000295,0.00386542,0.
 00045253,-0.00004376,0.00139010,-0.00144428,-0.00000317,0.00210738,-0.
 00490777,-0.00004955,0.01118987,0.01142977,0.00009237,-0.02558684,-0.0
 1200763,-0.00012543,-0.14530330,-0.17158417,-0.00106210,0.00020472,-0.
 00033105,0.00000595,-0.00118490,-0.00053913,-0.00000277,-0.00059183,0.
 00045961,0.00002644,0.00041364,0.00106330,0.00002491,0.15406305,0.1763
 3175,-0.00000820,-0.00003209,-0.00088405,-0.00000769,-0.00005037,0.008
 60466,0.00000974,0.00002045,-0.00008869,-0.00000157,-0.00004281,0.0053
 9893,0.00005514,0.00002481,-0.00010720,-0.00010669,-0.00001556,0.00082
 631,-0.00122064,-0.00112473,-0.03235103,0.00001072,-0.00000961,-0.0000
 0406,-0.00000932,-0.00000207,0.00041943,0.00000122,0.00004233,-0.00452
 835,0.00000882,0.00002003,-0.00303472,0.00127439,0.00114384,0.02508759
 ,-0.02401833,0.04338930,0.00131860,-0.09498256,-0.00838208,-0.00230629
 ,-0.00302490,-0.00607199,0.00046282,0.00055482,0.00132061,0.00013564,-
 0.00029724,0.01510169,-0.00003599,-0.00089361,-0.00229676,-0.00006226,
 -0.00614408,-0.00058883,0.00021391,-0.02344863,-0.00198347,-0.00234523
 ,-0.00058478,0.00032155,0.00000643,-0.00031264,-0.00102472,-0.00009691
 ,-0.00027488,0.00002767,-0.00001365,-0.00128068,0.00040299,0.00002680,
 0.33799374,0.09560091,-0.04665882,0.00312201,-0.02963031,0.02128387,-0
 .00394889,-0.03340534,-0.03350893,0.00009275,0.01256476,0.00562446,-0.
 00022960,0.00553073,0.00462277,-0.00007644,-0.00196350,-0.00744614,-0.
 00006079,-0.00379885,0.00538779,0.00025391,-0.04934551,0.00646994,-0.0
 2059586,-0.00108565,0.00047963,-0.00002021,0.00070291,0.00003549,-0.00
 009383,0.00032386,0.00017832,0.00003918,-0.00039868,0.00027791,0.00004
 848,-0.08782561,0.12317405,-0.00310435,0.00491581,0.01575397,-0.006126
 20,-0.00094114,0.01624198,0.00068934,-0.00054167,-0.00079282,-0.000018
 63,0.00005734,-0.00171204,-0.00060978,0.00032034,0.00083915,0.00005597
 ,-0.00004981,0.00009810,-0.00006468,-0.00018650,-0.00108511,-0.0025950
 6,-0.00891310,-0.03676888,0.00003196,-0.00000769,0.00011593,0.00000257
 ,-0.00005811,0.00041398,0.00000865,0.00000943,0.00020030,-0.00005454,0
 .00000657,-0.00020323,0.24508655,-0.08554661,0.38147223,0.00135732,0.0
 0189884,0.00133919,-0.00809037,-0.00192923,0.00359364,-0.00078087,-0.0
 0132884,-0.00063290,0.00028699,0.00017776,-0.00037141,-0.00084034,0.00
 105627,0.00008436,-0.00001915,-0.00022140,0.00003907,-0.00030131,-0.00
 022562,-0.00025693,-0.00426991,-0.00135840,-0.00433987,0.00000344,0.00
 003242,0.00000289,-0.00007035,-0.00012799,0.00009430,0.00001284,-0.000
 00025,0.00004553,-0.00009805,0.00004105,-0.00003417,-0.20030831,0.0595
 8978,-0.23979901,0.20830637,0.00766250,-0.00736924,-0.00382646,-0.0067
 3972,0.00103879,0.00209858,-0.00183965,-0.00212093,-0.00004394,0.00053
 460,0.00026392,0.00027168,0.00014156,0.00106693,0.00000407,-0.00006270
 ,-0.00028847,0.00002039,-0.00042615,0.00003011,-0.00009713,0.00119318,
 0.01092510,0.01615740,-0.00007271,0.00004332,0.00000313,-0.00006612,-0
 .00012337,0.00001183,0.00001483,0.00000278,-0.00004275,-0.00008947,0.0
 0003041,-0.00001883,0.05808735,-0.04796731,0.08248480,-0.06560596,0.04
 255916,0.00332384,-0.00359634,-0.00014864,0.00522139,0.00034086,-0.000
 17319,-0.00031932,-0.00003978,0.00000039,0.00005969,-0.00001018,0.0000
 0859,0.00036383,-0.00040031,0.00001125,0.00002791,0.00002998,-0.000012
 14,0.00019222,0.00011468,0.00001033,-0.00128781,0.00388498,0.00035962,
 0.00001023,0.00000059,0.00000950,-0.00001604,0.00004985,0.00001969,0.0
 0000852,-0.00000516,0.00000549,0.00006103,-0.00000859,0.00000650,-0.25
 647927,0.09012989,-0.33814465,0.25379545,-0.08824127,0.33710312,-0.051
 28363,0.00353105,-0.00094773,-0.01905632,0.01540346,-0.00094352,0.0368
 5416,0.04351383,0.00016995,-0.01106993,-0.00676320,0.00011499,-0.01128
 019,-0.02194410,-0.00008859,0.00361131,0.01037786,0.00002729,0.0129366
 4,-0.00622498,0.00003645,0.04087903,-0.05274596,0.00212078,0.00183919,
 -0.00107305,-0.00000206,0.00098036,0.00161889,-0.00005234,0.00014333,-
 0.00010567,-0.00002459,0.00197890,-0.00060532,0.00000145,0.01702207,0.
 03314051,0.00649721,0.00481170,0.00726847,-0.00496168,-0.02836662,-0.0
 0557353,0.00182943,-0.00006339,0.02243854,-0.06810586,0.00068059,0.033
 30568,-0.00460992,-0.00000289,-0.00089017,-0.00443198,-0.00000647,-0.0
 1225237,0.00817856,0.00000399,-0.00023324,-0.00041779,0.00000714,-0.00
 227454,-0.00205279,-0.00006240,-0.00716830,-0.01964726,0.00104306,0.00
 107764,-0.00035816,0.00000389,-0.00004536,0.00024048,0.00003602,-0.000
 00374,0.00000369,0.00000294,-0.00051270,0.00026683,-0.00000385,-0.0104
 7770,-0.03195301,0.00845036,0.00800157,0.00190881,-0.00224918,-0.02539
 179,0.11914896,-0.00124115,0.00048343,-0.00360998,0.00118391,0.0004500
 7,-0.04024874,0.00049262,0.00079995,0.00577511,-0.00016888,-0.00007723
 ,0.00364563,-0.00014042,-0.00019873,-0.00310190,0.00006758,0.00013658,
 -0.00052318,0.00010342,-0.00012826,0.00440447,0.00112051,-0.00173102,0
 .00421654,0.00000820,-0.00002218,-0.00025335,-0.00002757,0.00003230,-0
 .00227064,-0.00000413,-0.00000195,-0.00057483,0.00002478,-0.00000765,0
 .00085790,0.01408888,0.01688601,-0.03642892,-0.01356014,-0.00878149,0.
 00094413,-0.00194763,-0.00783982,0.06716776\\-0.00006607,-0.00002644,0
 .00000400,0.00001516,0.00000955,0.00000922,0.00006295,0.00002915,-0.00
 000059,0.00000090,-0.00000266,-0.00000351,-0.00000590,0.00000396,-0.00
 001210,0.00000288,0.00000881,-0.00000159,-0.00000180,0.00000557,-0.000
 00249,-0.00002980,0.00008275,0.00000357,0.00000945,0.00000322,-0.00000
 229,-0.00000706,0.00000145,0.00000449,0.00000283,0.00000981,-0.0000026
 4,-0.00000498,0.00000877,-0.00000022,0.00000050,-0.00011760,-0.0000157
 2,0.00000375,-0.00000935,0.00000136,0.00001717,-0.00000700,0.00001851\
 \\@


 QUHEN THE CAUSS IS TAKEN AWAY THE EFFECT WANISHETH.
 -- PROVERBS AND REASONS OF THE YEAR 1585
           AS REPRINTED IN PAISLEY MAGAZINE 1828.
 Job cpu time:       0 days  1 hours 33 minutes 48.5 seconds.
 File lengths (MBytes):  RWF=    137 Int=      0 D2E=      0 Chk=      9 Scr=      1
 Normal termination of Gaussian 09 at Sun Aug 29 00:07:35 2021.
